version 3
run BaseVersion-13-20240511-20:48:36-11938
attr configname BaseVersion
attr datetime 20240511-20:48:36
attr datetimef 20240511-204836
attr experiment BaseVersion
attr inifile omnetpp.ini
attr iterationvars $genInterval=0.75
attr iterationvarsd genInterval=0.75
attr iterationvarsf genInterval=0.75-
attr measurement $genInterval=0.75
attr network Network
attr processid 11938
attr repetition 0
attr replication #0
attr resultdir results
attr runnumber 13
attr seedset 13
itervar genInterval 0.75
config network Network
config sim-time-limit 200s
config Network.nodeTx.gen.generationInterval exponential(0.75)
config Network.nodeTx.gen.packetByteSize 12500
config Network.nodeTx.queue.bufferSize 200
config Network.nodeRx.queue.bufferSize 200
config Network.queue.bufferSize 200

vector 0 Network.nodeTx.gen packetGen ETV
vector 1 Network.nodeTx.queue bufferSize ETV
vector 2 Network.queue bufferSize ETV
vector 3 Network.nodeRx.queue bufferSize ETV
vector 4 Network.nodeRx.sink Delay ETV
vector 5 Network.nodeRx.sink packetUsed ETV
0	1	1.127803725266	1
0	12	1.828914652722	1
0	18	2.032319771982	1
0	34	3.503878449948	1
0	45	4.808019759619	1
0	56	6.484093232792	1
0	67	9.01462728034	1
0	73	9.162691625837	1
0	88	11.860631237514	1
0	99	12.926556526211	1
0	110	13.37965259994	1
0	121	14.424374554323	1
0	132	15.128741798555	1
0	143	15.829856574624	1
0	154	16.950354819353	1
0	165	18.135341882729	1
0	176	18.904949012025	1
0	185	19.273268932926	1
0	198	20.233418740183	1
0	207	20.545449958846	1
0	210	20.572198727019	1
0	229	21.38553588026	1
0	235	21.65138264198	1
0	251	23.421128671674	1
0	254	23.466349316678	1
0	271	24.421155330163	1
0	282	25.880158021005	1
0	293	26.358573345658	1
0	302	26.708505310571	1
0	315	27.223887095046	1
0	326	28.07810653225	1
0	337	28.521409930962	1
0	343	28.743477870412	1
0	359	29.310663608352	1
0	368	29.630965067668	1
0	381	33.379252657685	1
0	384	33.386345668785	1
0	401	34.101166938796	1
0	410	34.433932206428	1
0	418	34.583051023471	1
0	433	36.8163845594	1
0	444	37.778832276382	1
0	450	37.96316082597	1
0	465	40.062133088704	1
0	471	40.350708959847	1
0	487	40.930482090741	1
0	498	42.804180141861	1
0	509	43.280533959993	1
0	512	43.304851718703	1
0	529	44.039339581479	1
0	532	44.089813957637	1
0	549	44.967664625544	1
0	560	45.713007290856	1
0	566	45.96857266674	1
0	582	47.521068100919	1
0	585	47.561780814004	1
0	587	47.568346264188	1
0	611	48.73055721982	1
0	622	49.760079351647	1
0	633	50.319743297255	1
0	644	51.576591567909	1
0	650	51.740984734775	1
0	653	51.800037831014	1
0	674	52.47831674707	1
0	685	53.279645363109	1
0	696	53.867086303586	1
0	707	54.400970284866	1
0	718	54.85138428616	1
0	729	55.341660972118	1
0	740	55.879094242937	1
0	751	58.214544476815	1
0	762	59.041940056641	1
0	765	59.041949085227	1
0	767	59.13642430302	1
0	779	59.349170632293	1
0	782	59.437858364452	1
0	810	60.372060632191	1
0	821	61.730948983698	1
0	827	62.025266684614	1
0	838	62.26331154971	1
0	849	62.506567308841	1
0	865	63.228540619086	1
0	876	64.120219421751	1
0	887	64.788294774343	1
0	898	66.66913528247	1
0	909	67.539287553397	1
0	915	67.749545057068	1
0	926	68.017285806437	1
0	942	68.476771522596	1
0	953	69.21021737638	1
0	959	69.428977604248	1
0	962	69.49882698549	1
0	979	69.856547763001	1
0	995	70.435072130979	1
0	1006	71.13084914689	1
0	1009	71.182644388855	1
0	1026	72.292698581672	1
0	1032	72.538850116588	1
0	1035	72.591600577453	1
0	1043	72.680007464395	1
0	1066	73.548982419467	1
0	1077	74.136649621452	1
0	1088	74.732636149498	1
0	1099	75.469311618716	1
0	1105	75.580674486963	1
0	1120	76.095901354592	1
0	1123	76.173883476942	1
0	1140	77.113677296377	1
0	1146	77.325011056788	1
0	1155	77.498381502622	1
0	1162	77.621848824701	1
0	1182	81.321118967575	1
0	1193	83.273830703454	1
0	1199	83.420586115023	1
0	1214	84.275407982921	1
0	1225	88.390633076103	1
0	1231	88.594153988002	1
0	1247	89.166220829616	1
0	1258	89.797256571362	1
0	1261	89.868688596647	1
0	1278	90.478705052773	1
0	1284	90.720415030244	1
0	1287	90.777053736094	1
0	1299	90.931357577869	1
0	1319	92.304428567458	1
0	1330	92.753228314674	1
0	1339	93.143026546992	1
0	1352	93.556834919058	1
0	1358	93.674212119853	1
0	1361	93.676398296694	1
0	1365	93.835291457933	1
0	1386	94.360959650314	1
0	1402	94.866910031572	1
0	1413	95.332522229833	1
0	1424	96.266181808471	1
0	1435	97.445373683857	1
0	1446	100.592081888194	1
0	1449	100.601480596236	1
0	1466	102.159781826423	1
0	1477	103.193364974732	1
0	1488	103.711789256329	1
0	1499	107.201943454393	1
0	1502	107.286635229731	1
0	1509	107.444388331192	1
0	1529	109.277610501255	1
0	1535	109.38607851882	1
0	1545	109.726576979465	1
0	1554	109.876416494283	1
0	1564	110.069123916777	1
0	1567	110.091802085175	1
0	1590	111.636130563141	1
0	1599	112.017766460852	1
0	1607	112.127714481829	1
0	1612	112.264710448145	1
0	1622	112.46697435745	1
0	1625	112.497581229158	1
0	1649	113.176222096033	1
0	1662	115.671713298987	1
0	1673	116.294164963156	1
0	1682	116.62698111179	1
0	1695	119.021425637282	1
0	1698	119.042021165616	1
0	1710	119.494829250351	1
0	1726	120.086258003115	1
0	1732	120.18980687629	1
0	1747	121.315871223575	1
0	1758	122.387984579276	1
0	1769	123.013944152809	1
0	1775	123.182835328556	1
0	1790	123.630120102568	1
0	1796	123.775062821714	1
0	1811	126.797493128935	1
0	1822	127.228507095919	1
0	1833	127.788207848125	1
0	1842	128.100140856714	1
0	1855	129.726767473064	1
0	1866	132.290977864017	1
0	1877	133.040603688743	1
0	1883	133.156364535205	1
0	1886	133.244985036273	1
0	1907	134.641099555816	1
0	1918	135.070958689504	1
0	1929	135.901107195894	1
0	1935	136.085009647461	1
0	1938	136.171824490084	1
0	1954	136.582552515399	1
0	1960	136.65184751358	1
0	1979	137.398928980993	1
0	1990	139.945236993444	1
0	1999	140.301943736764	1
0	2007	140.46397426132	1
0	2010	140.480201041145	1
0	2012	140.544287806733	1
0	2040	143.431987848708	1
0	2046	143.66738900853	1
0	2062	144.732853479158	1
0	2073	145.520499814136	1
0	2076	145.544261675028	1
0	2093	146.137790330177	1
0	2104	146.81063252022	1
0	2115	147.705468604432	1
0	2126	148.361718837953	1
0	2137	150.836337466483	1
0	2148	152.16731316057	1
0	2154	152.411321551111	1
0	2170	153.413695008347	1
0	2176	153.613259187229	1
0	2191	155.418492155978	1
0	2202	156.819998725268	1
0	2213	157.973824654668	1
0	2219	158.164232102143	1
0	2232	158.543019937172	1
0	2245	159.418765792057	1
0	2254	159.720978525281	1
0	2262	159.845957581517	1
0	2275	160.274715107668	1
0	2283	160.445453635074	1
0	2291	160.671116895434	1
0	2296	160.723611031106	1
0	2317	162.570551786362	1
0	2328	163.608731232074	1
0	2334	163.785316319377	1
0	2342	163.934227148316	1
0	2354	164.215377774833	1
0	2360	164.314892911973	1
0	2369	164.491125763614	1
0	2379	164.682108467077	1
0	2399	165.267629503319	1
0	2405	165.513444798937	1
0	2419	165.846535853404	1
0	2422	165.872341040418	1
0	2441	167.582404560272	1
0	2447	167.802578252006	1
0	2463	168.530846493455	1
0	2474	169.359745032103	1
0	2477	169.404534242478	1
0	2494	170.474618680316	1
0	2505	170.943405373376	1
0	2511	171.135556896059	1
0	2519	171.282673997059	1
0	2536	171.992445768233	1
0	2547	173.053488322359	1
0	2558	174.878487836175	1
0	2569	178.44735854432	1
0	2580	179.03238576486	1
0	2591	182.374688688282	1
0	2600	182.725926589786	1
0	2608	183.01481344606	1
0	2611	183.024779839408	1
0	2633	185.693156101193	1
0	2644	187.019119576881	1
0	2655	188.055397774818	1
0	2666	189.327304750604	1
0	2669	189.34393181394	1
0	2671	189.406239891117	1
0	2676	189.469699722128	1
0	2680	189.610962258163	1
0	2698	190.004088878688	1
0	2723	191.369898372835	1
0	2734	192.699313508821	1
0	2745	193.322174039912	1
0	2756	194.779173861353	1
0	2765	195.102009805726	1
0	2768	195.105272758948	1
0	2775	195.222765718079	1
0	2784	195.416580681595	1
0	2787	195.494367979146	1
0	2808	196.067436163971	1
0	2825	196.683480880538	1
0	2831	196.883608469143	1
0	2847	197.812184657935	1
0	2858	198.323932381	1
1	2	1.127803725266	1
1	13	1.828914652722	1
1	19	2.032319771982	1
1	35	3.503878449948	1
1	46	4.808019759619	1
1	57	6.484093232792	1
1	68	9.01462728034	1
1	74	9.162691625837	1
1	89	11.860631237514	1
1	100	12.926556526211	1
1	111	13.37965259994	1
1	122	14.424374554323	1
1	133	15.128741798555	1
1	144	15.829856574624	1
1	155	16.950354819353	1
1	166	18.135341882729	1
1	177	18.904949012025	1
1	186	19.273268932926	1
1	199	20.233418740183	1
1	208	20.545449958846	1
1	211	20.572198727019	1
1	230	21.38553588026	1
1	236	21.65138264198	1
1	252	23.421128671674	1
1	255	23.466349316678	1
1	272	24.421155330163	1
1	283	25.880158021005	1
1	294	26.358573345658	1
1	303	26.708505310571	1
1	316	27.223887095046	1
1	327	28.07810653225	1
1	338	28.521409930962	1
1	344	28.743477870412	1
1	360	29.310663608352	1
1	369	29.630965067668	1
1	382	33.379252657685	1
1	385	33.386345668785	1
1	402	34.101166938796	1
1	411	34.433932206428	1
1	419	34.583051023471	1
1	434	36.8163845594	1
1	445	37.778832276382	1
1	451	37.96316082597	1
1	466	40.062133088704	1
1	472	40.350708959847	1
1	488	40.930482090741	1
1	499	42.804180141861	1
1	510	43.280533959993	1
1	513	43.304851718703	1
1	530	44.039339581479	1
1	533	44.089813957637	1
1	550	44.967664625544	1
1	561	45.713007290856	1
1	567	45.96857266674	1
1	583	47.521068100919	1
1	586	47.561780814004	1
1	588	47.568346264188	2
1	612	48.73055721982	1
1	623	49.760079351647	1
1	634	50.319743297255	1
1	645	51.576591567909	1
1	651	51.740984734775	1
1	654	51.800037831014	1
1	675	52.47831674707	1
1	686	53.279645363109	1
1	697	53.867086303586	1
1	708	54.400970284866	1
1	719	54.85138428616	1
1	730	55.341660972118	1
1	741	55.879094242937	1
1	752	58.214544476815	1
1	763	59.041940056641	1
1	766	59.041949085227	1
1	768	59.13642430302	2
1	780	59.349170632293	1
1	783	59.437858364452	1
1	811	60.372060632191	1
1	822	61.730948983698	1
1	828	62.025266684614	1
1	839	62.26331154971	1
1	850	62.506567308841	1
1	866	63.228540619086	1
1	877	64.120219421751	1
1	888	64.788294774343	1
1	899	66.66913528247	1
1	910	67.539287553397	1
1	916	67.749545057068	1
1	927	68.017285806437	1
1	943	68.476771522596	1
1	954	69.21021737638	1
1	960	69.428977604248	1
1	963	69.49882698549	1
1	980	69.856547763001	1
1	996	70.435072130979	1
1	1007	71.13084914689	1
1	1010	71.182644388855	1
1	1027	72.292698581672	1
1	1033	72.538850116588	1
1	1036	72.591600577453	1
1	1044	72.680007464395	1
1	1067	73.548982419467	1
1	1078	74.136649621452	1
1	1089	74.732636149498	1
1	1100	75.469311618716	1
1	1106	75.580674486963	1
1	1121	76.095901354592	1
1	1124	76.173883476942	1
1	1141	77.113677296377	1
1	1147	77.325011056788	1
1	1156	77.498381502622	1
1	1163	77.621848824701	1
1	1183	81.321118967575	1
1	1194	83.273830703454	1
1	1200	83.420586115023	1
1	1215	84.275407982921	1
1	1226	88.390633076103	1
1	1232	88.594153988002	1
1	1248	89.166220829616	1
1	1259	89.797256571362	1
1	1262	89.868688596647	1
1	1279	90.478705052773	1
1	1285	90.720415030244	1
1	1288	90.777053736094	1
1	1300	90.931357577869	1
1	1320	92.304428567458	1
1	1331	92.753228314674	1
1	1340	93.143026546992	1
1	1353	93.556834919058	1
1	1359	93.674212119853	1
1	1362	93.676398296694	1
1	1366	93.835291457933	1
1	1387	94.360959650314	1
1	1403	94.866910031572	1
1	1414	95.332522229833	1
1	1425	96.266181808471	1
1	1436	97.445373683857	1
1	1447	100.592081888194	1
1	1450	100.601480596236	1
1	1467	102.159781826423	1
1	1478	103.193364974732	1
1	1489	103.711789256329	1
1	1500	107.201943454393	1
1	1503	107.286635229731	1
1	1510	107.444388331192	1
1	1530	109.277610501255	1
1	1536	109.38607851882	1
1	1546	109.726576979465	1
1	1555	109.876416494283	1
1	1565	110.069123916777	1
1	1568	110.091802085175	1
1	1591	111.636130563141	1
1	1600	112.017766460852	1
1	1608	112.127714481829	1
1	1613	112.264710448145	1
1	1623	112.46697435745	1
1	1626	112.497581229158	1
1	1650	113.176222096033	1
1	1663	115.671713298987	1
1	1674	116.294164963156	1
1	1683	116.62698111179	1
1	1696	119.021425637282	1
1	1699	119.042021165616	1
1	1711	119.494829250351	1
1	1727	120.086258003115	1
1	1733	120.18980687629	1
1	1748	121.315871223575	1
1	1759	122.387984579276	1
1	1770	123.013944152809	1
1	1776	123.182835328556	1
1	1791	123.630120102568	1
1	1797	123.775062821714	1
1	1812	126.797493128935	1
1	1823	127.228507095919	1
1	1834	127.788207848125	1
1	1843	128.100140856714	1
1	1856	129.726767473064	1
1	1867	132.290977864017	1
1	1878	133.040603688743	1
1	1884	133.156364535205	1
1	1887	133.244985036273	1
1	1908	134.641099555816	1
1	1919	135.070958689504	1
1	1930	135.901107195894	1
1	1936	136.085009647461	1
1	1939	136.171824490084	1
1	1955	136.582552515399	1
1	1961	136.65184751358	1
1	1980	137.398928980993	1
1	1991	139.945236993444	1
1	2000	140.301943736764	1
1	2008	140.46397426132	1
1	2011	140.480201041145	1
1	2013	140.544287806733	2
1	2041	143.431987848708	1
1	2047	143.66738900853	1
1	2063	144.732853479158	1
1	2074	145.520499814136	1
1	2077	145.544261675028	1
1	2094	146.137790330177	1
1	2105	146.81063252022	1
1	2116	147.705468604432	1
1	2127	148.361718837953	1
1	2138	150.836337466483	1
1	2149	152.16731316057	1
1	2155	152.411321551111	1
1	2171	153.413695008347	1
1	2177	153.613259187229	1
1	2192	155.418492155978	1
1	2203	156.819998725268	1
1	2214	157.973824654668	1
1	2220	158.164232102143	1
1	2233	158.543019937172	1
1	2246	159.418765792057	1
1	2255	159.720978525281	1
1	2263	159.845957581517	1
1	2276	160.274715107668	1
1	2284	160.445453635074	1
1	2292	160.671116895434	1
1	2297	160.723611031106	1
1	2318	162.570551786362	1
1	2329	163.608731232074	1
1	2335	163.785316319377	1
1	2343	163.934227148316	1
1	2355	164.215377774833	1
1	2361	164.314892911973	1
1	2370	164.491125763614	1
1	2380	164.682108467077	1
1	2400	165.267629503319	1
1	2406	165.513444798937	1
1	2420	165.846535853404	1
1	2423	165.872341040418	1
1	2442	167.582404560272	1
1	2448	167.802578252006	1
1	2464	168.530846493455	1
1	2475	169.359745032103	1
1	2478	169.404534242478	1
1	2495	170.474618680316	1
1	2506	170.943405373376	1
1	2512	171.135556896059	1
1	2520	171.282673997059	1
1	2537	171.992445768233	1
1	2548	173.053488322359	1
1	2559	174.878487836175	1
1	2570	178.44735854432	1
1	2581	179.03238576486	1
1	2592	182.374688688282	1
1	2601	182.725926589786	1
1	2609	183.01481344606	1
1	2612	183.024779839408	1
1	2634	185.693156101193	1
1	2645	187.019119576881	1
1	2656	188.055397774818	1
1	2667	189.327304750604	1
1	2670	189.34393181394	1
1	2672	189.406239891117	2
1	2677	189.469699722128	2
1	2681	189.610962258163	2
1	2699	190.004088878688	1
1	2724	191.369898372835	1
1	2735	192.699313508821	1
1	2746	193.322174039912	1
1	2757	194.779173861353	1
1	2766	195.102009805726	1
1	2769	195.105272758948	1
1	2776	195.222765718079	1
1	2785	195.416580681595	1
1	2788	195.494367979146	1
1	2809	196.067436163971	1
1	2826	196.683480880538	1
1	2832	196.883608469143	1
1	2848	197.812184657935	1
1	2859	198.323932381	1
2	5	1.227903725266	1
2	16	1.929014652722	1
2	25	2.132419771982	1
2	38	3.603978449948	1
2	49	4.908119759619	1
2	60	6.584193232792	1
2	71	9.11472728034	1
2	77	9.262791625837	1
2	92	11.960731237514	1
2	103	13.026656526211	1
2	114	13.47975259994	1
2	125	14.524474554323	1
2	136	15.228841798555	1
2	147	15.929956574624	1
2	158	17.050454819353	1
2	169	18.235441882729	1
2	180	19.005049012025	1
2	191	19.373368932926	1
2	202	20.333518740183	1
2	215	20.645549958846	1
2	218	20.745549958846	1
2	233	21.48563588026	1
2	242	21.75148264198	1
2	257	23.521228671674	1
2	260	23.621228671674	1
2	275	24.521255330163	1
2	286	25.980258021005	1
2	297	26.458673345658	1
2	308	26.808605310571	1
2	319	27.323987095046	1
2	330	28.17820653225	1
2	341	28.621509930962	1
2	350	28.843577870412	1
2	363	29.410763608352	1
2	374	29.731065067668	1
2	387	33.479352657685	1
2	390	33.579352657685	1
2	405	34.201266938796	1
2	416	34.534032206428	1
2	422	34.683151023471	1
2	437	36.9164845594	1
2	448	37.878932276382	1
2	454	38.06326082597	1
2	469	40.162233088704	1
2	478	40.450808959847	1
2	491	41.030582090741	1
2	502	42.904280141861	1
2	515	43.380633959993	1
2	518	43.480633959993	1
2	535	44.139439581479	1
2	538	44.239439581479	1
2	553	45.067764625544	1
2	564	45.813107290856	1
2	573	46.06867266674	1
2	590	47.621168100919	1
2	593	47.721168100919	1
2	596	47.821168100919	1
2	615	48.83065721982	1
2	626	49.860179351647	1
2	637	50.419843297255	1
2	648	51.676691567909	1
2	656	51.841084734775	1
2	661	51.941084734775	1
2	678	52.57841674707	1
2	689	53.379745363109	1
2	700	53.967186303586	1
2	711	54.501070284866	1
2	722	54.95148428616	1
2	733	55.441760972118	1
2	744	55.979194242937	1
2	755	58.314644476815	1
2	770	59.142040056641	1
2	773	59.242040056641	1
2	776	59.342040056641	1
2	787	59.449270632293	2
2	792	59.549270632293	2
2	814	60.472160632191	1
2	825	61.831048983698	1
2	834	62.125366684614	1
2	845	62.36341154971	1
2	856	62.606667308841	1
2	869	63.328640619086	1
2	880	64.220319421751	1
2	891	64.888394774343	1
2	902	66.76923528247	1
2	913	67.639387553397	1
2	922	67.849645057068	1
2	933	68.117385806437	1
2	946	68.576871522596	1
2	957	69.31031737638	1
2	968	69.529077604248	1
2	973	69.629077604248	1
2	986	69.956647763001	1
2	999	70.535172130979	1
2	1012	71.23094914689	1
2	1015	71.33094914689	1
2	1030	72.392798581672	1
2	1041	72.638950116588	1
2	1048	72.738950116588	1
2	1051	72.838950116588	1
2	1070	73.649082419467	1
2	1081	74.236749621452	1
2	1092	74.832736149498	1
2	1103	75.569411618716	1
2	1109	75.680774486963	1
2	1126	76.196001354592	1
2	1129	76.296001354592	1
2	1144	77.213777296377	1
2	1153	77.425111056788	1
2	1161	77.598481502622	1
2	1169	77.721948824701	1
2	1186	81.421218967575	1
2	1197	83.373930703454	1
2	1203	83.520686115023	1
2	1218	84.375507982921	1
2	1229	88.490733076103	1
2	1238	88.694253988002	1
2	1251	89.266320829616	1
2	1264	89.897356571362	1
2	1267	89.997356571362	1
2	1282	90.578805052773	1
2	1293	90.820515030244	1
2	1298	90.920515030244	1
2	1306	91.031457577869	1
2	1323	92.404528567458	1
2	1334	92.853328314674	1
2	1345	93.243126546992	1
2	1356	93.656934919058	1
2	1364	93.774312119853	1
2	1371	93.874312119853	1
2	1375	93.974312119853	2
2	1393	94.461059650314	1
2	1406	94.967010031572	1
2	1417	95.432622229833	1
2	1428	96.366281808471	1
2	1439	97.545473683857	1
2	1452	100.692181888194	1
2	1455	100.792181888194	1
2	1470	102.259881826423	1
2	1481	103.293464974732	1
2	1492	103.811889256329	1
2	1505	107.302043454393	1
2	1508	107.402043454393	1
2	1516	107.544488331192	1
2	1533	109.377710501255	1
2	1539	109.48617851882	1
2	1552	109.826676979465	1
2	1560	109.976516494283	1
2	1572	110.169223916777	1
2	1577	110.269223916777	1
2	1594	111.736230563141	1
2	1605	112.117866460852	1
2	1611	112.227814481829	1
2	1619	112.364810448145	1
2	1631	112.56707435745	1
2	1635	112.66707435745	2
2	1655	113.276322096033	1
2	1666	115.771813298987	1
2	1677	116.394264963156	1
2	1688	116.72708111179	1
2	1701	119.121525637282	1
2	1704	119.221525637282	1
2	1717	119.594929250351	1
2	1730	120.186358003115	1
2	1736	120.28990687629	1
2	1751	121.415971223575	1
2	1762	122.488084579276	1
2	1773	123.114044152809	1
2	1779	123.282935328556	1
2	1794	123.730220102568	1
2	1800	123.875162821714	1
2	1815	126.897593128935	1
2	1826	127.328607095919	1
2	1837	127.888307848125	1
2	1848	128.200240856714	1
2	1859	129.826867473064	1
2	1870	132.391077864017	1
2	1881	133.140703688743	1
2	1889	133.256464535205	1
2	1894	133.356464535205	1
2	1911	134.741199555816	1
2	1922	135.171058689504	1
2	1933	136.001207195894	1
2	1941	136.185109647461	1
2	1946	136.285109647461	1
2	1963	136.682652515399	1
2	1968	136.782652515399	1
2	1983	137.499028980993	1
2	1994	140.045336993444	1
2	2005	140.402043736764	1
2	2015	140.56407426132	1
2	2020	140.66407426132	1
2	2024	140.76407426132	2
2	2044	143.532087848708	1
2	2053	143.76748900853	1
2	2066	144.832953479158	1
2	2079	145.620599814136	1
2	2082	145.720599814136	1
2	2097	146.237890330177	1
2	2108	146.91073252022	1
2	2119	147.805568604432	1
2	2130	148.461818837953	1
2	2141	150.936437466483	1
2	2152	152.26741316057	1
2	2161	152.511421551111	1
2	2174	153.513795008347	1
2	2180	153.713359187229	1
2	2195	155.518592155978	1
2	2206	156.920098725268	1
2	2217	158.073924654668	1
2	2223	158.264332102143	1
2	2238	158.643119937172	1
2	2249	159.518865792057	1
2	2260	159.821078525281	1
2	2266	159.946057581517	1
2	2281	160.374815107668	1
2	2287	160.545553635074	1
2	2299	160.771216895434	1
2	2304	160.871216895434	1
2	2321	162.670651786362	1
2	2332	163.708831232074	1
2	2338	163.885416319377	1
2	2348	164.034327148316	1
2	2363	164.315477774833	1
2	2368	164.415477774833	1
2	2376	164.591225763614	1
2	2386	164.782208467077	1
2	2403	165.367729503319	1
2	2412	165.613544798937	1
2	2427	165.946635853404	1
2	2430	166.046635853404	1
2	2445	167.682504560272	1
2	2454	167.902678252006	1
2	2467	168.630946493455	1
2	2480	169.459845032103	1
2	2483	169.559845032103	1
2	2498	170.574718680316	1
2	2509	171.043505373376	1
2	2515	171.235656896059	1
2	2525	171.382773997059	1
2	2540	172.092545768233	1
2	2551	173.153588322359	1
2	2562	174.978587836175	1
2	2573	178.54745854432	1
2	2584	179.13248576486	1
2	2595	182.474788688282	1
2	2606	182.826026589786	1
2	2617	183.11491344606	1
2	2622	183.21491344606	1
2	2637	185.793256101193	1
2	2648	187.119219576881	1
2	2659	188.155497774818	1
2	2674	189.427404750604	1
2	2679	189.527404750604	1
2	2684	189.627404750604	1
2	2688	189.727404750604	2
2	2693	189.827404750604	2
2	2705	190.104188878688	2
2	2727	191.469998372835	1
2	2738	192.799413508821	1
2	2749	193.422274039912	1
2	2760	194.879273861353	1
2	2773	195.202109805726	1
2	2778	195.302109805726	1
2	2781	195.402109805726	1
2	2792	195.516680681595	2
2	2797	195.616680681595	2
2	2814	196.167536163971	1
2	2829	196.783580880538	1
2	2838	196.983708469143	1
2	2851	197.912284657935	1
2	2862	198.424032381	1
3	8	1.428003725266	1
3	22	2.129114652722	1
3	30	2.332519771982	1
3	41	3.804078449948	1
3	52	5.108219759619	1
3	63	6.784293232792	1
3	79	9.31482728034	1
3	84	9.51482728034	1
3	95	12.160831237514	1
3	106	13.226756526211	1
3	117	13.67985259994	1
3	128	14.724574554323	1
3	139	15.428941798555	1
3	150	16.130056574624	1
3	161	17.250554819353	1
3	172	18.435541882729	1
3	183	19.205149012025	1
3	194	19.573468932926	1
3	205	20.533618740183	1
3	220	20.845649958846	1
3	225	21.045649958846	1
3	239	21.68573588026	1
3	247	21.95158264198	1
3	262	23.721328671674	1
3	267	23.921328671674	1
3	278	24.721355330163	1
3	289	26.180358021005	1
3	300	26.658773345658	1
3	311	27.008705310571	1
3	322	27.524087095046	1
3	333	28.37830653225	1
3	347	28.821609930962	1
3	355	29.043677870412	1
3	366	29.610863608352	1
3	377	29.931165067668	1
3	392	33.679452657685	1
3	397	33.879452657685	1
3	408	34.401366938796	1
3	424	34.734132206428	1
3	429	34.934132206428	1
3	440	37.1165845594	1
3	456	38.079032276382	1
3	461	38.279032276382	1
3	475	40.362333088704	1
3	483	40.650908959847	1
3	494	41.230682090741	1
3	505	43.104380141861	1
3	520	43.580733959993	1
3	525	43.780733959993	1
3	540	44.339539581479	1
3	545	44.539539581479	1
3	556	45.267864625544	1
3	570	46.013207290856	1
3	578	46.26877266674	1
3	597	47.821268100919	1
3	602	48.021268100919	1
3	607	48.221268100919	1
3	618	49.03075721982	1
3	629	50.060279351647	1
3	640	50.619943297255	1
3	658	51.876791567909	1
3	665	52.076791567909	1
3	670	52.276791567909	1
3	681	52.77851674707	1
3	692	53.579845363109	1
3	703	54.167286303586	1
3	714	54.701170284866	1
3	725	55.15158428616	1
3	736	55.641860972118	1
3	747	56.179294242937	1
3	758	58.514744476815	1
3	777	59.342140056641	1
3	789	59.542140056641	1
3	796	59.742140056641	1
3	801	59.942140056641	1
3	806	60.142140056641	1
3	817	60.672260632191	1
3	831	62.031148983698	1
3	842	62.325466684614	1
3	853	62.56351154971	1
3	861	62.806767308841	1
3	872	63.528740619086	1
3	883	64.420419421751	1
3	894	65.088494774343	1
3	905	66.96933528247	1
3	919	67.839487553397	1
3	930	68.049745057068	1
3	938	68.317485806437	1
3	949	68.776971522596	1
3	965	69.51041737638	1
3	975	69.729177604248	1
3	983	69.929177604248	1
3	991	70.156747763001	1
3	1002	70.735272130979	1
3	1017	71.43104914689	1
3	1022	71.63104914689	1
3	1038	72.592898581672	1
3	1052	72.839050116588	1
3	1057	73.039050116588	1
3	1062	73.239050116588	1
3	1073	73.849182419467	1
3	1084	74.436849621452	1
3	1095	75.032836149498	1
3	1111	75.769511618716	1
3	1116	75.969511618716	1
3	1131	76.396101354592	1
3	1136	76.596101354592	1
3	1150	77.413877296377	1
3	1166	77.625211056788	1
3	1173	77.825211056788	1
3	1178	78.025211056788	1
3	1189	81.621318967575	1
3	1205	83.574030703454	1
3	1210	83.774030703454	1
3	1221	84.575607982921	1
3	1235	88.690833076103	1
3	1243	88.894353988002	1
3	1254	89.466420829616	1
3	1269	90.097456571362	1
3	1274	90.297456571362	1
3	1290	90.778905052773	1
3	1303	91.020615030244	1
3	1310	91.220615030244	1
3	1315	91.420615030244	1
3	1326	92.604628567458	1
3	1337	93.053428314674	1
3	1348	93.443226546992	1
3	1368	93.857034919058	1
3	1377	94.057034919058	1
3	1382	94.257034919058	1
3	1390	94.457034919058	1
3	1398	94.661159650314	1
3	1409	95.167110031572	1
3	1420	95.632722229833	1
3	1431	96.566381808471	1
3	1442	97.745573683857	1
3	1457	100.892281888194	1
3	1462	101.092281888194	1
3	1473	102.459981826423	1
3	1484	103.493564974732	1
3	1495	104.011989256329	1
3	1513	107.502143454393	1
3	1520	107.702143454393	1
3	1525	107.902143454393	1
3	1541	109.577810501255	1
3	1549	109.777810501255	1
3	1562	110.026776979465	1
3	1574	110.226776979465	1
3	1581	110.426776979465	1
3	1586	110.626776979465	1
3	1597	111.936330563141	1
3	1616	112.317966460852	1
3	1628	112.517966460852	1
3	1637	112.717966460852	1
3	1642	112.917966460852	1
3	1647	113.117966460852	1
3	1658	113.476422096033	1
3	1669	115.971913298987	1
3	1680	116.594364963156	1
3	1691	116.92718111179	1
3	1706	119.321625637282	1
3	1714	119.521625637282	1
3	1722	119.795029250351	1
3	1738	120.386458003115	1
3	1743	120.586458003115	1
3	1754	121.616071223575	1
3	1765	122.688184579276	1
3	1781	123.314144152809	1
3	1786	123.514144152809	1
3	1802	123.930320102568	1
3	1807	124.130320102568	1
3	1818	127.097693128935	1
3	1829	127.528707095919	1
3	1840	128.088407848125	1
3	1851	128.400340856714	1
3	1862	130.026967473064	1
3	1873	132.591177864017	1
3	1891	133.340803688743	1
3	1898	133.540803688743	1
3	1903	133.740803688743	1
3	1914	134.941299555816	1
3	1925	135.371158689504	1
3	1943	136.201307195894	1
3	1950	136.401307195894	1
3	1958	136.601307195894	1
3	1970	136.882752515399	1
3	1975	137.082752515399	1
3	1986	137.699128980993	1
3	1997	140.245436993444	1
3	2017	140.602143736764	1
3	2026	140.802143736764	1
3	2031	141.002143736764	1
3	2036	141.202143736764	1
3	2050	143.732187848708	1
3	2058	143.96758900853	1
3	2069	145.033053479158	1
3	2084	145.820699814136	1
3	2089	146.020699814136	1
3	2100	146.437990330177	1
3	2111	147.11083252022	1
3	2122	148.005668604432	1
3	2133	148.661918837953	1
3	2144	151.136537466483	1
3	2158	152.46751316057	1
3	2166	152.711521551111	1
3	2182	153.713895008347	1
3	2187	153.913895008347	1
3	2198	155.718692155978	1
3	2209	157.120198725268	1
3	2225	158.274024654668	1
3	2230	158.474024654668	1
3	2241	158.843219937172	1
3	2252	159.718965792057	1
3	2268	160.021178525281	1
3	2273	160.221178525281	1
3	2289	160.574915107668	1
3	2301	160.774915107668	1
3	2308	160.974915107668	1
3	2313	161.174915107668	1
3	2324	162.870751786362	1
3	2340	163.908931232074	1
3	2350	164.108931232074	1
3	2358	164.308931232074	1
3	2373	164.515577774833	1
3	2383	164.715577774833	1
3	2390	164.915577774833	1
3	2395	165.115577774833	1
3	2409	165.567829503319	1
3	2417	165.813644798937	1
3	2432	166.146735853404	1
3	2437	166.346735853404	1
3	2451	167.882604560272	1
3	2459	168.102778252006	1
3	2470	168.831046493455	1
3	2485	169.659945032103	1
3	2490	169.859945032103	1
3	2501	170.774818680316	1
3	2517	171.243605373376	1
3	2527	171.443605373376	1
3	2532	171.643605373376	1
3	2543	172.292645768233	1
3	2554	173.353688322359	1
3	2565	175.178687836175	1
3	2576	178.74755854432	1
3	2587	179.33258576486	1
3	2598	182.674888688282	1
3	2614	183.026126589786	1
3	2624	183.31501344606	1
3	2629	183.51501344606	1
3	2640	185.993356101193	1
3	2651	187.319319576881	1
3	2662	188.355597774818	1
3	2685	189.627504750604	1
3	2694	189.827504750604	1
3	2702	190.027504750604	1
3	2709	190.227504750604	1
3	2714	190.427504750604	1
3	2719	190.627504750604	1
3	2730	191.670098372835	1
3	2741	192.999513508821	1
3	2752	193.622374039912	1
3	2763	195.079373861353	1
3	2782	195.402209805726	1
3	2794	195.602209805726	1
3	2801	195.802209805726	1
3	2806	196.002209805726	1
3	2816	196.202209805726	1
3	2821	196.402209805726	1
3	2836	196.983680880538	1
3	2843	197.183808469143	1
3	2854	198.112384657935	1
3	2865	198.624132381	1
4	10	1.528003725266	0.4002
4	27	2.229114652722	0.4002
4	32	2.432519771982	0.4002
4	43	3.904078449948	0.4002
4	54	5.208219759619	0.4002
4	65	6.884293232792	0.4002
4	81	9.41482728034	0.4002
4	86	9.61482728034	0.452135654503
4	97	12.260831237514	0.4002
4	108	13.326756526211	0.4002
4	119	13.77985259994	0.4002
4	130	14.824574554323	0.4002
4	141	15.528941798555	0.4002
4	152	16.230056574624	0.4002
4	163	17.350554819353	0.4002
4	174	18.535541882729	0.4002
4	188	19.305149012025	0.4002
4	196	19.673468932926	0.4002
4	212	20.633618740183	0.4002
4	222	20.945649958846	0.4002
4	227	21.145649958846	0.573451231827
4	244	21.78573588026	0.4002
4	249	22.05158264198	0.4002
4	264	23.821328671674	0.4002
4	269	24.021328671674	0.554979354996
4	280	24.821355330163	0.4002
4	291	26.280358021005	0.4002
4	305	26.758773345658	0.4002
4	313	27.108705310571	0.4002
4	324	27.624087095046	0.4002
4	335	28.47830653225	0.4002
4	352	28.921609930962	0.4002
4	357	29.143677870412	0.4002
4	371	29.710863608352	0.4002
4	379	30.031165067668	0.4002
4	394	33.779452657685	0.4002
4	399	33.979452657685	0.5931069889
4	413	34.501366938796	0.4002
4	426	34.834132206428	0.4002
4	431	35.034132206428	0.451081182957
4	442	37.2165845594	0.4002
4	458	38.179032276382	0.4002
4	463	38.379032276382	0.415871450412
4	480	40.462333088704	0.4002
4	485	40.750908959847	0.4002
4	496	41.330682090741	0.4002
4	507	43.204380141861	0.4002
4	522	43.680733959993	0.4002
4	527	43.880733959993	0.57588224129
4	542	44.439539581479	0.4002
4	547	44.639539581479	0.549725623842
4	558	45.367864625544	0.4002
4	575	46.113207290856	0.4002
4	580	46.36877266674	0.4002
4	599	47.921268100919	0.4002
4	604	48.121268100919	0.559487286915
4	609	48.321268100919	0.752921836731
4	620	49.13075721982	0.4002
4	631	50.160279351647	0.4002
4	642	50.719943297255	0.4002