version 3
run BaseVersion-3-20240511-20:48:36-11938
attr configname BaseVersion
attr datetime 20240511-20:48:36
attr datetimef 20240511-204836
attr experiment BaseVersion
attr inifile omnetpp.ini
attr iterationvars $genInterval=0.25
attr iterationvarsd genInterval=0.25
attr iterationvarsf genInterval=0.25-
attr measurement $genInterval=0.25
attr network Network
attr processid 11938
attr repetition 0
attr replication #0
attr resultdir results
attr runnumber 3
attr seedset 3
itervar genInterval 0.25
config network Network
config sim-time-limit 200s
config Network.nodeTx.gen.generationInterval exponential(0.25)
config Network.nodeTx.gen.packetByteSize 12500
config Network.nodeTx.queue.bufferSize 200
config Network.nodeRx.queue.bufferSize 200
config Network.queue.bufferSize 200

vector 0 Network.nodeTx.gen packetGen ETV
vector 1 Network.nodeTx.queue bufferSize ETV
vector 2 Network.queue bufferSize ETV
vector 3 Network.nodeRx.queue bufferSize ETV
vector 4 Network.nodeRx.sink Delay ETV
vector 5 Network.nodeRx.sink packetUsed ETV
0	1	0.200070597723	1
0	4	0.218408207214	1
0	14	0.526285168524	1
0	29	0.984350925737	1
0	34	1.070292277811	1
0	39	1.102628343184	1
0	43	1.281388417523	1
0	57	1.491980863331	1
0	74	2.050588574896	1
0	85	2.194234993599	1
0	100	2.760781629165	1
0	103	2.765513124701	1
0	105	2.799063261954	1
0	107	2.809433069138	1
0	112	2.867492664755	1
0	114	2.938710272538	1
0	116	2.951920001958	1
0	120	2.976475266317	1
0	127	3.121791686831	1
0	142	3.418508060885	1
0	144	3.42609096082	1
0	151	3.465362667007	1
0	157	3.617947383406	1
0	168	3.768852762458	1
0	179	4.030697648249	1
0	186	4.091399368028	1
0	192	4.17300068715	1
0	199	4.282202897155	1
0	214	4.56415260011	1
0	222	4.733784207306	1
0	232	4.957210395792	1
0	254	5.568539933673	1
0	257	5.574608466282	1
0	271	5.93753157867	1
0	281	6.142126475072	1
0	308	7.051181822982	1
0	314	7.126205671318	1
0	322	7.254897618262	1
0	332	7.388976726159	1
0	342	7.5901483842	1
0	348	7.673501395332	1
0	354	7.764952167598	1
0	365	8.060291388003	1
0	378	8.28113837413	1
0	385	8.42629563478	1
0	391	8.506663993214	1
0	395	8.549321853723	1
0	404	8.700884365186	1
0	415	8.897556054329	1
0	427	9.251914860797	1
0	442	9.630804734066	1
0	457	10.056152916073	1
0	463	10.147604735197	1
0	469	10.222066556684	1
0	476	10.284810212417	1
0	494	10.843693987501	1
0	504	10.96643799551	1
0	517	11.28327446358	1
0	539	11.971995666788	1
0	542	11.977203153505	1
0	571	12.909580894458	1
0	574	12.94807778886	1
0	586	13.227055815649	1
0	591	13.325429887343	1
0	610	13.908263756833	1
0	623	14.322041566039	1
0	634	14.789338134211	1
0	640	14.916624458344	1
0	645	15.035325861581	1
0	653	15.173542469944	1
0	658	15.197729952009	1
0	665	15.331218837649	1
0	678	15.596122674052	1
0	691	15.982901064497	1
0	701	16.186922364233	1
0	716	16.499483928007	1
0	723	16.611667687697	1
0	726	16.61751493032	1
0	728	16.681255574868	1
0	735	16.776119859647	1
0	744	16.906557765689	1
0	757	17.11338179742	1
0	764	17.271601980412	1
0	779	17.616339764318	1
0	785	17.694755799905	1
0	796	17.929916810201	1
0	801	18.016171443998	1
0	805	18.073007826087	1
0	814	18.225985537017	1
0	828	18.491048080085	1
0	843	18.983531530622	1
0	855	19.255216985696	1
0	865	19.47584207707	1
0	883	19.987967467776	1
0	888	20.071307490074	1
0	904	20.488111002695	1
0	910	20.569535750162	1
0	916	20.686686793654	1
0	927	20.838255868013	1
0	930	20.857800344016	1
0	935	20.915282706179	1
0	950	21.272665116589	1
0	956	21.328882224322	1
0	958	21.345355697933	1
0	969	21.525760394136	1
0	985	21.985537888396	1
0	990	22.008355551901	1
0	1004	22.303284360988	1
0	1011	22.468495762419	1
0	1021	22.616098487024	1
0	1029	22.728521795709	1
0	1036	22.841009488796	1
0	1049	23.148491700494	1
0	1059	23.329958172	1
0	1071	23.673298976957	1
0	1081	23.826113448703	1
0	1094	24.119792140239	1
0	1109	24.532829219995	1
0	1121	24.824964883136	1
0	1127	24.920018241308	1
0	1135	25.036959822296	1
0	1153	25.501093679377	1
0	1163	25.776850287333	1
0	1173	25.944839243104	1
0	1180	26.048660786382	1
0	1190	26.242857992977	1
0	1200	26.455480150935	1
0	1218	26.892839228959	1
0	1223	26.991399003362	1
0	1232	27.175728288762	1
0	1242	27.322990427316	1
0	1245	27.36145291793	1
0	1247	27.377328729917	1
0	1253	27.467307209269	1
0	1260	27.536798046267	1
0	1278	27.948093692196	1
0	1305	28.838458196609	1
0	1311	28.93468823685	1
0	1318	29.000219177394	1
0	1320	29.005582738762	1
0	1333	29.299572872793	1
0	1343	29.464233130277	1
0	1353	29.727029509183	1
0	1356	29.733622245056	1
0	1372	30.05540572456	1
0	1380	30.231495200097	1
0	1390	30.392626651369	1
0	1410	31.017977207799	1
0	1422	31.244973399254	1
0	1425	31.302945737794	1
0	1427	31.320275064167	1
0	1454	31.970296481358	1
0	1457	31.989128851666	1
0	1462	32.070327095201	1
0	1466	32.125793195526	1
0	1470	32.174208229146	1
0	1472	32.215385912364	1
0	1512	33.374323895268	1
0	1515	33.400693010329	1
0	1525	33.695635540621	1
0	1528	33.730248226882	1
0	1544	34.07897105926	1
0	1554	34.280425609392	1
0	1557	34.311311423923	1
0	1559	34.363318153115	1
0	1565	34.385799525671	1
0	1591	35.145465967606	1
0	1603	35.419338714546	1
0	1614	35.705459671499	1
0	1620	35.805419173217	1
0	1629	36.000106155942	1
0	1639	36.112323536979	1
0	1652	36.419373349857	1
0	1662	36.606068890085	1
0	1665	36.682661687986	1
0	1676	36.820890612367	1
0	1696	37.474276896418	1
0	1709	37.902672145422	1
0	1720	38.359559836511	1
0	1726	38.571300416868	1
0	1740	38.895248893019	1
0	1753	39.427639595129	1
0	1759	39.591236600472	1
0	1772	39.994351607594	1
0	1785	40.455804994457	1
0	1791	40.563471964317	1
0	1801	40.904852195282	1
0	1815	41.275265882682	1
0	1823	41.545208047149	1
0	1839	42.112245891338	1
0	1850	42.725525984812	1
0	1859	43.11065596902	1
0	1867	43.361708122376	1
0	1873	43.445020062769	1
0	1880	43.558923216297	1
0	1899	44.092996988427	1
0	1907	44.294209247192	1
0	1916	44.491284029658	1
0	1921	44.545941398978	1
0	1937	44.98603874843	1
0	1943	45.039359423661	1
0	1950	45.105902201995	1
0	1961	45.429257739242	1
0	1964	45.485944513369	1
0	1980	45.870150231472	1
0	2000	46.664681091427	1
0	2011	47.559448550951	1
0	2020	47.922720346064	1
0	2033	48.398624644522	1
0	2036	48.450765622714	1
0	2043	48.646858932072	1
0	2053	48.805286836597	1
0	2056	48.828807059121	1
0	2065	49.003362174218	1
0	2074	49.171146593038	1
0	2079	49.218441719283	1
0	2100	49.875993099945	1
0	2106	49.964593501644	1
0	2122	50.351935922158	1
0	2127	50.430205492615	1
0	2136	50.596148330896	1
0	2156	51.141014915604	1
0	2164	51.292885465286	1
0	2172	51.467805227099	1
0	2175	51.529275812283	1
0	2188	51.741572668345	1
0	2191	51.790337265515	1
0	2198	51.895134320772	1
0	2200	51.914253000088	1
0	2215	52.149428132215	1
0	2233	52.706745973327	1
0	2236	52.738879766267	1
0	2249	52.994415263199	1
0	2252	53.00433917509	1
0	2257	53.043015475189	1
0	2292	55.696856139039	1
0	2298	55.83051916453	1
0	2301	55.908495013124	1
0	2303	55.921083953217	1
0	2307	55.995418212223	1
0	2314	56.054150567111	1
0	2320	56.135113165541	1
0	2336	56.463103029274	1
0	2341	56.535604725928	1
0	2355	56.798863521412	1
0	2372	57.368915431092	1
0	2382	57.531906327167	1
0	2397	57.982732255101	1
0	2403	58.06305248694	1
0	2409	58.102601096336	1
0	2420	58.366649638399	1
0	2445	59.714431922552	1
0	2456	60.497890513353	1
0	2462	60.607799507232	1
0	2467	60.75076233315	1
0	2477	60.948800292105	1
0	2480	60.966978588266	1
0	2489	61.136206289048	1
0	2493	61.151072539101	1
0	2495	61.18578990969	1
0	2500	61.207416698827	1
0	2522	61.699040400632	1
0	2547	62.501935963295	1
0	2550	62.563538336755	1
0	2562	62.758084373968	1
0	2577	63.192873369363	1
0	2593	63.64708489231	1
0	2604	65.238897198979	1
0	2607	65.285489696244	1
0	2624	66.471474827627	1
0	2627	66.546867707027	1
0	2632	66.589763488813	1
0	2643	66.884159107852	1
0	2651	67.043193015617	1
0	2671	67.608003376285	1
0	2682	67.915267494847	1
0	2690	68.019407281268	1
0	2695	68.123288386647	1
0	2698	68.140003207858	1
0	2712	68.438302630573	1
0	2729	68.937297806709	1
0	2743	69.282284165931	1
0	2748	69.368214131207	1
0	2763	69.792829724733	1
0	2774	70.130641079368	1
0	2787	70.601152874341	1
0	2790	70.644156685039	1
0	2792	70.665429365933	1
0	2804	70.962260274828	1
0	2809	71.054188371718	1
0	2828	71.514561789592	1
0	2838	71.720367935673	1
0	2850	72.045078105612	1
0	2866	72.676074445622	1
0	2872	72.787297842661	1
0	2875	72.812220147933	1
0	2886	73.136507072612	1
0	2894	73.266683551004	1
0	2899	73.304234416445	1
0	2910	73.497533054852	1
0	2916	73.591686555081	1
0	2927	73.853837456587	1
0	2937	73.989839470862	1
0	2942	74.082591491121	1
0	2961	74.606915559843	1
0	2976	75.067185193648	1
0	2981	75.108917414148	1
0	2992	75.280542223237	1
0	3010	75.810868219566	1
0	3021	76.114997424486	1
0	3034	76.516065637813	1
0	3040	76.800053104001	1
0	3056	77.690608595422	1
0	3062	77.934753910014	1
0	3071	78.049352917863	1
0	3088	79.580590460031	1
0	3091	79.637924811374	1
0	3096	79.681408167813	1
0	3098	79.750205053182	1
0	3114	80.178269472893	1
0	3131	80.618135340554	1
0	3137	80.708197919503	1
0	3156	81.547934692313	1
0	3159	81.575925180188	1
0	3169	81.875928678133	1
0	3174	81.960253267499	1
0	3183	82.124938275313	1
0	3195	82.437533702848	1
0	3201	82.522119617176	1
0	3207	82.5902149813	1
0	3223	83.03868724149	1
0	3236	83.337742692072	1
0	3253	83.852024805722	1
0	3256	83.858489646383	1
0	3258	83.88265360496	1
0	3277	84.542164029022	1
0	3283	84.602984480928	1
0	3290	84.715760825637	1
0	3306	85.161353382029	1
0	3322	85.563784529337	1
0	3333	86.035253547994	1
0	3342	86.353098673517	1
0	3347	86.447556171339	1
0	3357	86.678190302316	1
0	3362	86.760071508815	1
0	3366	86.82588751106	1
0	3375	86.966774960752	1
0	3384	87.113336379489	1
0	3394	87.30716794331	1
0	3406	87.564725329317	1
0	3409	87.589837040985	1
0	3425	87.971092826258	1
0	3440	88.424459368252	1
0	3455	88.819140806713	1
0	3466	89.010427773088	1
0	3474	89.130311549019	1
0	3486	89.503189513054	1
0	3497	89.634216625124	1
0	3500	89.69982947923	1
0	3502	89.727746572597	1
0	3530	90.567952579129	1
0	3536	90.71246237598	1
0	3546	91.060065390255	1
0	3562	91.541497804724	1
0	3568	91.646551337227	1
0	3583	92.518478581698	1
0	3594	93.26015619971	1
0	3603	93.578532685249	1
0	3614	93.879952734717	1
0	3622	94.011899624386	1
0	3635	94.470923236882	1
0	3640	94.508389688185	1
0	3642	94.520030891881	1
0	3644	94.525616787738	1
0	3646	94.539929154388	1
0	3651	94.602807297659	1
0	3664	94.942221655474	1
0	3671	95.052525436756	1
0	3677	95.143373524882	1
0	3695	95.525058819397	1
0	3705	95.706881889551	1
0	3713	95.856069102937	1
0	3718	95.898547544199	1
0	3727	96.060558382598	1
0	3757	97.014196409323	1
0	3767	97.195761645244	1
0	3774	97.370427762315	1
0	3784	97.485334284043	1
0	3799	97.926858789548	1
0	3805	98.002956460638	1
0	3807	98.022186925815	1
0	3825	98.428106596616	1
0	3835	98.591067336265	1
0	3852	99.168648087349	1
0	3858	99.184723918916	1
0	3865	99.296719403061	1
0	3881	99.835781537203	1
0	3897	100.374462219925	1
0	3903	100.522024223146	1
0	3906	100.613390912985	1
0	3910	100.631144083978	1
0	3915	100.71455445315	1
0	3919	100.734449566147	1
0	3923	100.794297760483	1
0	3934	100.987774655543	1
0	3943	101.124071344674	1
0	3945	101.143714858974	1
0	3949	101.177332400051	1
0	3953	101.228097884649	1
0	3993	102.465843861426	1
0	4003	102.609177451562	1
0	4011	102.751262134632	1
0	4021	102.923442796684	1
0	4031	103.163180571558	1
0	4043	103.382034901694	1
0	4068	104.348764508913	1
0	4074	104.590998034012	1
0	4080	104.677804577218	1
0	4089	104.794431614904	1
0	4097	104.945858488294	1
0	4107	105.186924678513	1
0	4117	105.313856000215	1
0	4120	105.356625645323	1
0	4136	105.745113599605	1
0	4141	105.825684903045	1
0	4152	106.065911614943	1
0	4167	106.466674044779	1
0	4177	106.690505801359	1
0	4183	106.732045807261	1
0	4185	106.765320607366	1
0	4191	106.828503279327	1
0	4193	106.836357679583	1
0	4200	106.905948481093	1
0	4202	106.971971897408	1
0	4213	107.135216756811	1
0	4215	107.138426142075	1
0	4217	107.138612591642	1
0	4223	107.218883518421	1
0	4225	107.226578580003	1
0	4259	107.938037796638	1
0	4269	108.092802098748	1
0	4272	108.173808375582	1
0	4278	108.218148056052	1
0	4280	108.237851560555	1
0	4296	108.522321221341	1
0	4301	108.602493836041	1
0	4317	108.998929779708	1
0	4347	110.066575257607	1
0	4357	110.282359546357	1
0	4367	110.419675121731	1
0	4380	110.716343426726	1
0	4392	111.04382452106	1
0	4400	111.16779154006	1
0	4412	111.406542579986	1
0	4415	111.418393115936	1
0	4417	111.468231662621	1
0	4428	111.612928173097	1
0	4442	111.953406096599	1
0	4449	112.069702036363	1
0	4457	112.183424313033	1
0	4469	112.410631002889	1
0	4482	112.785510244294	1
0	4487	112.821540826554	1
0	4503	113.215689960002	1
0	4506	113.280289686096	1
0	4520	113.531777546506	1
0	4535	113.953333547158	1
0	4550	114.310781387705	1
0	4553	114.387523274866	1
0	4566	114.64158756467	1
0	4574	114.773631467959	1
0	4586	115.039781239199	1
0	4609	115.726890637055	1
0	4612	115.727010369602	1
0	4616	115.807596852182	1
0	4627	115.99713197299	1
0	4631	116.036380223055	1
0	4633	116.08554787672	1
0	4649	116.388230209188	1
0	4664	116.754709330897	1
0	4674	116.964002145664	1
0	4677	116.970338080442	1
0	4690	117.206763998847	1
0	4693	117.223798883802	1
0	4695	117.234533810833	1
0	4702	117.333263046881	1
0	4708	117.468269545941	1
0	4719	117.687495042511	1
0	4721	117.688563934477	1
0	4728	117.715064590684	1
0	4730	117.785832923758	1
0	4741	117.96008324498	1
0	4756	118.2661749013	1
0	4771	118.669782783681	1
0	4774	118.685661736518	1
0	4779	118.703903827164	1
0	4783	118.791184529337	1
0	4803	119.24762231456	1
0	4836	120.355694515378	1
0	4848	120.648713076002	1
0	4876	121.53575114684	1
0	4879	121.568893420445	1
0	4886	121.733264303758	1
0	4895	121.923939499798	1
0	4910	122.256600859447	1
0	4925	122.72179301917	1
0	4933	122.972156997421	1
0	4944	123.212312122983	1
0	4953	123.369008330053	1
0	4970	124.670672093758	1
0	4981	125.157015921587	1
0	4987	125.258701016175	1
0	4990	125.306043072221	1
0	5006	125.770959998699	1
0	5022	126.211653786844	1
0	5028	126.341989464361	1
0	5031	126.352734482261	1
0	5047	126.838295479081	1
0	5063	127.342559984058	1
0	5072	127.740368653864	1
0	5080	128.022118962738	1
0	5086	128.050059061385	1
0	5093	128.197667953604	1
0	5104	128.511817216771	1
0	5117	128.790175294449	1
0	5134	129.23297345526	1
0	5140	129.387190651109	1
0	5150	129.638999851244	1
0	5164	130.017535446251	1
0	5172	130.121540276482	1
0	5175	130.151643047137	1
0	5177	130.204719696585	1
0	5186	130.382118845629	1
0	5197	130.591016372388	1
0	5214	131.103952627053	1
0	5217	131.110803616199	1
0	5241	131.766946768794	1
0	5244	131.780554220919	1
0	5248	131.842777382406	1
0	5262	132.26634835774	1
0	5268	132.338913138983	1
0	5286	132.772144627084	1
0	5302	133.358028884838	1
0	5305	133.363851920389	1
0	5310	133.469829466683	1
0	5312	133.521570440416	1
0	5314	133.536208909252	1
0	5327	133.816676867302	1
0	5341	134.130393997215	1
0	5361	134.727860451712	1
0	5371	134.86164808274	1
0	5383	135.176269145761	1
0	5397	135.508581529262	1
0	5408	135.897608257539	1
0	5416	136.059695519633	1
0	5419	136.082882795594	1
0	5426	136.256452526389	1
0	5434	136.397649032272	1
0	5444	136.532782127035	1
0	5464	137.147242503019	1
0	5470	137.233035874948	1
0	5484	137.594180189917	1
0	5500	138.171609992701	1
0	5503	138.229164481659	1
0	5513	138.505413320589	1
0	5516	138.571334379374	1
0	5532	138.960110097182	1
0	5549	139.526936271061	1
0	5560	140.092152012796	1
0	5569	140.431922580268	1
0	5574	140.503906086306	1
0	5581	140.639323020067	1
0	5601	141.270195213436	1
0	5612	142.191851646123	1
0	5623	142.688075622667	1
0	5634	143.591847476731	1
0	5640	143.768195570835	1
0	5643	143.782788335655	1
0	5654	143.992564151853	1
0	5662	144.186626872116	1
0	5667	144.217149637925	1
0	5686	144.714552788915	1
0	5698	145.07354565358	1
0	5709	145.297958266072	1
0	5712	145.345513940086	1
0	5734	145.913924948367	1
0	5740	146.104729412901	1
0	5748	146.303429178819	1
0	5753	146.337223021667	1
0	5769	146.79889506374	1
0	5775	146.817823133214	1
0	5784	147.068394607689	1
0	5797	147.303174083977	1
0	5809	147.694757613339	1
0	5820	147.863684218697	1
0	5823	147.874804433898	1
0	5834	148.155640797873	1
0	5840	148.235187612821	1
0	5856	148.626368506505	1
0	5866	148.874150466457	1
0	5883	149.888231980313	1
0	5889	150.115377492967	1
0	5892	150.137334241286	1
0	5914	151.153115064541	1
0	5920	151.402498471616	1
0	5931	151.64237353664	1
0	5942	151.857454474644	1
0	5953	152.069108113522	1
0	5964	152.332022760226	1
0	5978	152.641454035248	1
0	5986	152.837320195524	1
0	5989	152.934274890159	1
0	6000	153.138028683467	1
0	6010	153.27232074557	1
0	6028	153.779611737008	1
0	6036	153.991243879989	1
0	6045	154.141619179859	1
0	6050	154.190927359006	1
0	6059	154.382343698384	1
0	6071	154.682714729083	1
0	6084	154.976288865369	1
0	6094	155.125674910437	1
0	6097	155.149113881234	1
0	6103	155.282054307745	1
0	6112	155.423429904052	1
0	6138	156.274206319524	1
0	6141	156.301139993061	1
0	6143	156.315020016768	1
0	6145	156.352089889452	1
0	6157	156.672521411505	1
0	6159	156.673053367251	1
0	6174	156.920285851167	1
0	6180	156.979123552954	1
0	6186	157.110434927733	1
0	6190	157.171474785621	1
0	6195	157.216435807114	1
0	6206	157.397979713517	1
0	6212	157.511050334692	1
0	6223	157.722163953565	1
0	6229	157.796443095331	1
0	6245	158.23070577464	1
0	6255	158.464410947558	1
0	6265	158.631140096865	1
0	6290	159.412163111953	1
0	6307	159.967309788702	1
0	6327	160.502498941514	1
0	6333	160.628155767754	1
0	6341	160.873702240045	1
0	6356	161.214944526814	1
0	6364	161.492463543982	1
0	6375	161.693626988911	1
0	6391	162.262274269193	1
0	6397	162.506699529261	1
0	6408	162.792942191532	1
0	6414	162.871754160366	1
0	6423	163.040611091351	1
0	6443	163.734138590019	1
0	6452	164.080532691808	1
0	6463	164.447576658971	1
0	6468	164.516127903127	1
0	6473	164.555465401704	1
0	6475	164.557941832801	1
0	6484	164.75068354356	1
0	6486	164.77236516363	1
0	6521	166.139719223698	1
0	6527	166.315611786233	1
0	6530	166.328186898632	1
0	6537	166.497924665514	1
0	6543	166.588102519085	1
0	6557	166.842565985166	1
0	6569	167.180117711461	1
0	6579	167.393980158787	1
0	6582	167.404019423181	1
0	6584	167.423435470472	1
0	6602	167.766702123504	1
0	6610	167.89285593373	1
0	6620	168.10584552319	1
0	6627	168.227896504185	1
0	6642	168.55681417398	1
0	6650	168.66018056908	1
0	6660	168.860270476542	1
0	6670	169.047384657989	1
0	6692	169.748264109058	1
0	6701	169.938555759427	1
0	6708	170.044871343195	1
0	6718	170.238246711848	1
0	6731	170.451851351194	1
0	6743	170.768337830453	1
0	6746	170.781366496658	1
0	6754	170.913093912886	1
0	6765	171.114635279016	1
0	6775	171.344207574602	1
0	6785	171.480127845372	1
0	6788	171.489205203793	1
0	6816	172.510231316214	1
0	6822	172.643677694253	1
0	6837	173.371559107595	1
0	6848	173.986309592334	1
0	6851	174.023515644374	1
0	6866	174.578591115963	1
0	6871	174.589217708508	1
0	6883	175.07292005904	1
0	6889	175.105070256693	1
0	6896	175.204532435675	1
0	6898	175.258061965828	1
0	6902	175.280609786598	1
0	6918	175.604419908581	1
0	6925	175.709315708453	1
0	6935	175.905619240233	1
0	6938	175.907138105405	1
0	6947	176.098527435426	1
0	6951	176.111604946334	1
0	6958	176.26776080726	1
0	6984	177.045515016015	1
0	6987	177.047194197538	1
0	7003	177.427898000525	1
0	7010	177.552487218783	1
0	7020	177.746483987949	1
0	7050	179.45848778858	1
0	7061	180.981312160958	1
0	7072	181.410416540837	1
0	7083	181.959461796016	1
0	7089	182.17212307442	1
0	7092	182.193728332837	1
0	7094	182.248411333852	1
0	7102	182.310742681562	1
0	7125	182.943646099493	1
0	7142	183.419788002537	1
0	7148	183.557763824915	1
0	7163	184.096479675601	1
0	7169	184.337933488069	1
0	7180	184.501975223274	1
0	7183	184.558734145607	1
0	7187	184.623169330342	1
0	7194	184.722568023931	1
0	7210	185.087552736599	1
0	7217	185.193314986721	1
0	7220	185.209000329811	1
0	7227	185.334529524677	1
0	7231	185.380841475021	1
0	7233	185.386462160486	1
0	7240	185.476654257461	1
0	7255	185.746611991622	1
0	7257	185.75607301495	1
0	7261	185.802652402752	1
0	7309	187.403955168079	1
0	7320	187.635099071503	1
0	7331	187.887514201899	1
0	7342	188.129134271831	1
0	7351	188.267634738912	1
0	7363	188.566887965294	1
0	7372	188.705915751625	1
0	7377	188.792219249121	1
0	7388	188.977533024155	1
0	7391	189.063872114463	1
0	7407	189.400633863324	1
0	7420	189.752798995626	1
0	7437	190.191309669578	1
0	7443	190.314157019537	1
0	7448	190.460704929614	1
0	7454	190.50206020226	1
0	7462	190.670035812227	1
0	7482	191.259203490689	1
0	7488	191.344113935286	1
0	7490	191.347406221225	1
0	7492	191.354412899318	1
0	7515	191.898366675362	1
0	7518	191.925537324499	1
0	7525	192.011955807996	1
0	7534	192.166416583481	1
0	7540	192.286662522124	1
0	7549	192.405104989791	1
0	7579	193.363930082355	1
0	7587	193.604574205163	1
0	7596	193.748049170283	1
0	7613	194.297186931985	1
0	7622	194.611778317825	1
0	7633	194.91518110063	1
0	7641	195.048100979971	1
0	7644	195.059349342518	1
0	7663	195.671355582923	1
0	7666	195.713756110454	1
0	7678	196.031543036793	1
0	7681	196.063955571947	1
0	7690	196.227769998941	1
0	7703	196.539015953439	1
0	7706	196.561011183563	1
0	7715	196.678536938398	1
0	7722	196.791532238104	1
0	7733	196.998958310061	1
0	7740	197.167592026494	1
0	7763	197.834636635852	1
0	7768	197.918107995284	1
0	7784	198.27847514011	1
0	7793	198.469711406739	1
0	7803	198.62893516302	1
0	7808	198.687755351055	1
0	7810	198.69903482528	1
0	7819	198.869502362635	1
0	7830	199.049079429211	1
0	7840	199.236776254948	1
0	7852	199.511067428683	1
0	7865	199.790791314129	1
0	7868	199.814034321598	1
1	2	0.200070597723	1
1	5	0.218408207214	1
1	15	0.526285168524	1
1	30	0.984350925737	1
1	35	1.070292277811	1
1	40	1.102628343184	1
1	44	1.281388417523	1
1	58	1.491980863331	1
1	75	2.050588574896	1
1	86	2.194234993599	1
1	101	2.760781629165	1
1	104	2.765513124701	1
1	106	2.799063261954	2
1	108	2.809433069138	3
1	113	2.867492664755	3
1	115	2.938710272538	4
1	117	2.951920001958	5
1	121	2.976475266317	5
1	128	3.121791686831	5
1	143	3.418508060885	3
1	145	3.42609096082	4
1	152	3.465362667007	4
1	158	3.617947383406	4
1	169	3.768852762458	3
1	180	4.030697648249	2
1	187	4.091399368028	2
1	193	4.17300068715	2
1	200	4.282202897155	2
1	215	4.56415260011	1
1	223	4.733784207306	1
1	233	4.957210395792	1
1	255	5.568539933673	1
1	258	5.574608466282	1
1	272	5.93753157867	1
1	282	6.142126475072	1
1	309	7.051181822982	1
1	315	7.126205671318	1
1	323	7.254897618262	1
1	333	7.388976726159	1
1	343	7.5901483842	1
1	349	7.673501395332	1
1	355	7.764952167598	1
1	366	8.060291388003	1
1	379	8.28113837413	1
1	386	8.42629563478	1
1	392	8.506663993214	1
1	396	8.549321853723	1
1	405	8.700884365186	1
1	416	8.897556054329	1
1	428	9.251914860797	1
1	443	9.630804734066	1
1	458	10.056152916073	1
1	464	10.147604735197	1
1	470	10.222066556684	1
1	477	10.284810212417	1
1	495	10.843693987501	1
1	505	10.96643799551	1
1	518	11.28327446358	1
1	540	11.971995666788	1
1	543	11.977203153505	1
1	572	12.909580894458	1
1	575	12.94807778886	1
1	587	13.227055815649	1
1	592	13.325429887343	1
1	611	13.908263756833	1
1	624	14.322041566039	1
1	635	14.789338134211	1
1	641	14.916624458344	1
1	646	15.035325861581	1
1	654	15.173542469944	1
1	659	15.197729952009	1
1	666	15.331218837649	1
1	679	15.596122674052	1
1	692	15.982901064497	1
1	702	16.186922364233	1
1	717	16.499483928007	1
1	724	16.611667687697	1
1	727	16.61751493032	1
1	729	16.681255574868	2
1	736	16.776119859647	2
1	745	16.906557765689	2
1	758	17.11338179742	1
1	765	17.271601980412	1
1	780	17.616339764318	1
1	786	17.694755799905	1
1	797	17.929916810201	1
1	802	18.016171443998	1
1	806	18.073007826087	1
1	815	18.225985537017	1
1	829	18.491048080085	1
1	844	18.983531530622	1
1	856	19.255216985696	1
1	866	19.47584207707	1
1	884	19.987967467776	1
1	889	20.071307490074	1
1	905	20.488111002695	1
1	911	20.569535750162	1
1	917	20.686686793654	1
1	928	20.838255868013	1
1	931	20.857800344016	1
1	936	20.915282706179	2
1	951	21.272665116589	1
1	957	21.328882224322	1
1	959	21.345355697933	2
1	970	21.525760394136	1
1	986	21.985537888396	1
1	991	22.008355551901	1
1	1005	22.303284360988	1
1	1012	22.468495762419	1
1	1022	22.616098487024	1
1	1030	22.728521795709	1
1	1037	22.841009488796	1
1	1050	23.148491700494	1
1	1060	23.329958172	1
1	1072	23.673298976957	1
1	1082	23.826113448703	1
1	1095	24.119792140239	1
1	1110	24.532829219995	1
1	1122	24.824964883136	1
1	1128	24.920018241308	1
1	1136	25.036959822296	1
1	1154	25.501093679377	1
1	1164	25.776850287333	1
1	1174	25.944839243104	1
1	1181	26.048660786382	1
1	1191	26.242857992977	1
1	1201	26.455480150935	1
1	1219	26.892839228959	1
1	1224	26.991399003362	1
1	1233	27.175728288762	1
1	1243	27.322990427316	1
1	1246	27.36145291793	1
1	1248	27.377328729917	2
1	1254	27.467307209269	2
1	1261	27.536798046267	2
1	1279	27.948093692196	1
1	1306	28.838458196609	1
1	1312	28.93468823685	1
1	1319	29.000219177394	1
1	1321	29.005582738762	2
1	1334	29.299572872793	1
1	1344	29.464233130277	1
1	1354	29.727029509183	1
1	1357	29.733622245056	1
1	1373	30.05540572456	1
1	1381	30.231495200097	1
1	1391	30.392626651369	1
1	1411	31.017977207799	1
1	1423	31.244973399254	1
1	1426	31.302945737794	1
1	1428	31.320275064167	2
1	1455	31.970296481358	1
1	1458	31.989128851666	1
1	1463	32.070327095201	1
1	1467	32.125793195526	2
1	1471	32.174208229146	2
1	1473	32.215385912364	3
1	1513	33.374323895268	1
1	1516	33.400693010329	1
1	1526	33.695635540621	1
1	1529	33.730248226882	1
1	1545	34.07897105926	1
1	1555	34.280425609392	1
1	1558	34.311311423923	1
1	1560	34.363318153115	2
1	1566	34.385799525671	2
1	1592	35.145465967606	1
1	1604	35.419338714546	1
1	1615	35.705459671499	1
1	1621	35.805419173217	1
1	1630	36.000106155942	1
1	1640	36.112323536979	1
1	1653	36.419373349857	1
1	1663	36.606068890085	1
1	1666	36.682661687986	1
1	1677	36.820890612367	1
1	1697	37.474276896418	1
1	1710	37.902672145422	1
1	1721	38.359559836511	1
1	1727	38.571300416868	1
1	1741	38.895248893019	1
1	1754	39.427639595129	1
1	1760	39.591236600472	1
1	1773	39.994351607594	1
1	1786	40.455804994457	1
1	1792	40.563471964317	1
1	1802	40.904852195282	1
1	1816	41.275265882682	1
1	1824	41.545208047149	1
1	1840	42.112245891338	1
1	1851	42.725525984812	1
1	1860	43.11065596902	1
1	1868	43.361708122376	1
1	1874	43.445020062769	1
1	1881	43.558923216297	1
1	1900	44.092996988427	1
1	1908	44.294209247192	1
1	1917	44.491284029658	1
1	1922	44.545941398978	1
1	1938	44.98603874843	1
1	1944	45.039359423661	1
1	1951	45.105902201995	1
1	1962	45.429257739242	1
1	1965	45.485944513369	1
1	1981	45.870150231472	1
1	2001	46.664681091427	1
1	2012	47.559448550951	1
1	2021	47.922720346064	1
1	2034	48.398624644522	1
1	2037	48.450765622714	1
1	2044	48.646858932072	1
1	2054	48.805286836597	1
1	2057	48.828807059121	1
1	2066	49.003362174218	1
1	2075	49.171146593038	1
1	2080	49.218441719283	1
1	2101	49.875993099945	1
1	2107	49.964593501644	1
1	2123	50.351935922158	1
1	2128	50.430205492615	1
1	2137	50.596148330896	1
1	2157	51.141014915604	1
1	2165	51.292885465286	1
1	2173	51.467805227099	1
1	2176	51.529275812283	1
1	2189	51.741572668345	1
1	2192	51.790337265515	1
1	2199	51.895134320772	1
1	2201	51.914253000088	2
1	2216	52.149428132215	1
1	2234	52.706745973327	1
1	2237	52.738879766267	1
1	2250	52.994415263199	1
1	2253	53.00433917509	1
1	2258	53.043015475189	2
1	2293	55.696856139039	1
1	2299	55.83051916453	1
1	2302	55.908495013124	1
1	2304	55.921083953217	2
1	2308	55.995418212223	2
1	2315	56.054150567111	2
1	2321	56.135113165541	2
1	2337	56.463103029274	1
1	2342	56.535604725928	1
1	2356	56.798863521412	1
1	2373	57.368915431092	1
1	2383	57.531906327167	1
1	2398	57.982732255101	1
1	2404	58.06305248694	1
1	2410	58.102601096336	1
1	2421	58.366649638399	1
1	2446	59.714431922552	1
1	2457	60.497890513353	1
1	2463	60.607799507232	1
1	2468	60.75076233315	1
1	2478	60.948800292105	1
1	2481	60.966978588266	1
1	2490	61.136206289048	1
1	2494	61.151072539101	1
1	2496	61.18578990969	2
1	2501	61.207416698827	3
1	2523	61.699040400632	1
1	2548	62.501935963295	1
1	2551	62.563538336755	1
1	2563	62.758084373968	1
1	2578	63.192873369363	1
1	2594	63.64708489231	1
1	2605	65.238897198979	1
1	2608	65.285489696244	1
1	2625	66.471474827627	1
1	2628	66.546867707027	1
1	2633	66.589763488813	1
1	2644	66.884159107852	1
1	2652	67.043193015617	1
1	2672	67.608003376285	1
1	2683	67.915267494847	1
1	2691	68.019407281268	1
1	2696	68.123288386647	1
1	2699	68.140003207858	1
1	2713	68.438302630573	1
1	2730	68.937297806709	1
1	2744	69.282284165931	1
1	2749	69.368214131207	1
1	2764	69.792829724733	1
1	2775	70.130641079368	1
1	2788	70.601152874341	1
1	2791	70.644156685039	1
1	2793	70.665429365933	2
1	2805	70.962260274828	1
1	2810	71.054188371718	1
1	2829	71.514561789592	1
1	2839	71.720367935673	1
1	2851	72.045078105612	1
1	2867	72.676074445622	1
1	2873	72.787297842661	1
1	2876	72.812220147933	1
1	2887	73.136507072612	1
1	2895	73.266683551004	1
1	2900	73.304234416445	1
1	2911	73.497533054852	1
1	2917	73.591686555081	1
1	2928	73.853837456587	1
1	2938	73.989839470862	1
1	2943	74.082591491121	1
1	2962	74.606915559843	1
1	2977	75.067185193648	1
1	2982	75.108917414148	1
1	2993	75.280542223237	1
1	3011	75.810868219566	1
1	3022	76.114997424486	1
1	3035	76.516065637813	1
1	3041	76.800053104001	1
1	3057	77.690608595422	1
1	3063	77.934753910014	1
1	3072	78.049352917863	1
1	3089	79.580590460031	1
1	3092	79.637924811374	1
1	3097	79.681408167813	1
1	3099	79.750205053182	2
1	3115	80.178269472893	1
1	3132	80.618135340554	1
1	3138	80.708197919503	1
1	3157	81.547934692313	1
1	3160	81.575925180188	1
1	3170	81.875928678133	1
1	3175	81.960253267499	1
1	3184	82.124938275313	1
1	3196	82.437533702848	1
1	3202	82.522119617176	1
1	3208	82.5902149813	1
1	3224	83.03868724149	1
1	3237	83.337742692072	1
1	3254	83.852024805722	1
1	3257	83.858489646383	1
1	3259	83.88265360496	2
1	3278	84.542164029022	1
1	3284	84.602984480928	1
1	3291	84.715760825637	1
1	3307	85.161353382029	1
1	3323	85.563784529337	1
1	3334	86.035253547994	1
1	3343	86.353098673517	1
1	3348	86.447556171339	1
1	3358	86.678190302316	1
1	3363	86.760071508815	1
1	3367	86.82588751106	1
1	3376	86.966774960752	1
1	3385	87.113336379489	1
1	3395	87.30716794331	1
1	3407	87.564725329317	1
1	3410	87.589837040985	1
1	3426	87.971092826258	1
1	3441	88.424459368252	1
1	3456	88.819140806713	1
1	3467	89.010427773088	1
1	3475	89.130311549019	1