version 3
run BaseVersion-6-20240511-20:48:36-11938
attr configname BaseVersion
attr datetime 20240511-20:48:36
attr datetimef 20240511-204836
attr experiment BaseVersion
attr inifile omnetpp.ini
attr iterationvars $genInterval=0.4
attr iterationvarsd genInterval=0.4
attr iterationvarsf genInterval=0.4-
attr measurement $genInterval=0.4
attr network Network
attr processid 11938
attr repetition 0
attr replication #0
attr resultdir results
attr runnumber 6
attr seedset 6
itervar genInterval 0.4
config network Network
config sim-time-limit 200s
config Network.nodeTx.gen.generationInterval exponential(0.4)
config Network.nodeTx.gen.packetByteSize 12500
config Network.nodeTx.queue.bufferSize 200
config Network.nodeRx.queue.bufferSize 200
config Network.queue.bufferSize 200

vector 0 Network.nodeTx.gen packetGen ETV
vector 1 Network.nodeTx.queue bufferSize ETV
vector 2 Network.queue bufferSize ETV
vector 3 Network.nodeRx.queue bufferSize ETV
vector 4 Network.nodeRx.sink Delay ETV
vector 5 Network.nodeRx.sink packetUsed ETV
0	1	0.893448103126	1
0	12	2.072042711789	1
0	18	2.233417461	1
0	21	2.327405932924	1
0	42	3.016066061121	1
0	45	3.042630803465	1
0	47	3.059667154385	1
0	54	3.244550807095	1
0	56	3.29011253847	1
0	89	4.970763783001	1
0	98	5.332362497513	1
0	103	5.374271967556	1
0	113	5.67612559335	1
0	128	6.05120654375	1
0	136	6.268275796548	1
0	150	6.570622391837	1
0	158	6.734055085235	1
0	168	6.997810634845	1
0	182	7.387505106344	1
0	195	8.085171481721	1
0	201	8.315773521834	1
0	217	8.878393520259	1
0	228	9.410937402142	1
0	234	9.608639916801	1
0	244	9.900594602178	1
0	253	10.010271349506	1
0	265	10.356186008473	1
0	271	10.423844746057	1
0	285	10.838500044591	1
0	301	11.353918510787	1
0	312	13.205059562799	1
0	323	14.187332602017	1
0	334	14.872936979291	1
0	340	15.129178718142	1
0	351	15.342407848503	1
0	367	15.796315791807	1
0	378	16.632169603195	1
0	389	17.279401468182	1
0	400	17.973763605817	1
0	406	18.218895562531	1
0	409	18.241301332666	1
0	426	18.689441690646	1
0	442	19.196685886673	1
0	445	19.260680479076	1
0	462	19.908820493004	1
0	468	20.085523985928	1
0	483	20.618863051989	1
0	492	21.002204919727	1
0	505	21.49615886774	1
0	511	21.729883515605	1
0	525	22.04131051997	1
0	536	22.384474306346	1
0	539	22.437806494926	1
0	543	22.473269593922	1
0	567	23.737958788614	1
0	573	23.839030784408	1
0	581	24.045537814931	1
0	586	24.143841881387	1
0	593	24.241665964929	1
0	616	24.940209102455	1
0	627	25.445522530906	1
0	633	25.692175836766	1
0	649	27.752647985214	1
0	658	28.06824027448	1
0	666	28.186318529676	1
0	681	28.806050503197	1
0	692	29.251105894698	1
0	703	29.789721338043	1
0	712	30.155244774353	1
0	725	30.664570457319	1
0	736	31.169963546767	1
0	747	31.809414704437	1
0	758	32.917488363115	1
0	769	33.771965545668	1
0	775	33.945393969227	1
0	790	34.634895316535	1
0	796	34.751911043534	1
0	801	34.897990553726	1
0	811	35.103972546069	1
0	831	35.65115813123	1
0	842	36.200131622721	1
0	848	36.396684144832	1
0	863	36.911728193466	1
0	869	37.165428755651	1
0	880	37.373851732618	1
0	896	37.869062682316	1
0	907	39.68706352851	1
0	913	39.868795412679	1
0	923	40.108293486305	1
0	939	41.156585845363	1
0	945	41.343825418174	1
0	960	41.870812093668	1
0	971	42.365449903257	1
0	977	42.477249279608	1
0	980	42.51167229077	1
0	996	42.967026711	1
0	1007	43.170273707694	1
0	1010	43.194844716823	1
0	1032	43.784250162144	1
0	1043	44.560228244927	1
0	1054	45.139072513158	1
0	1060	45.409351198469	1
0	1071	45.542902693143	1
0	1081	45.84712609909	1
0	1087	45.931188497129	1
0	1092	45.996976103041	1
0	1105	46.251872653239	1
0	1125	46.904918644826	1
0	1131	47.067989289736	1
0	1144	47.448558601082	1
0	1157	47.979369052637	1
0	1163	48.09402978232	1
0	1166	48.177877506787	1
0	1175	48.379366538277	1
0	1185	48.540217258881	1
0	1197	48.86867857187	1
0	1217	49.612424401932	1
0	1226	49.937046356542	1
0	1237	50.318876106972	1
0	1248	50.640188924684	1
0	1261	51.506237768208	1
0	1267	51.754464848584	1
0	1283	53.255670236856	1
0	1294	53.699931448189	1
0	1305	54.425309230288	1
0	1316	55.285869763754	1
0	1319	55.365652597661	1
0	1329	55.626995802367	1
0	1344	56.012359756529	1
0	1352	56.227569729035	1
0	1363	56.48615828454	1
0	1372	56.601972162989	1
0	1382	56.809083156551	1
0	1399	57.978478778173	1
0	1410	58.520216757866	1
0	1421	60.152154452452	1
0	1432	60.8514811157	1
0	1441	61.172536343825	1
0	1454	61.632367857209	1
0	1463	61.951661083941	1
0	1466	62.011651596397	1
0	1478	62.261033366884	1
0	1493	62.746407079284	1
0	1501	62.941175432659	1
0	1504	62.965431129843	1
0	1515	63.174797868258	1
0	1521	63.260404737306	1
0	1529	63.39467751198	1
0	1554	64.429685993405	1
0	1557	64.430027130951	1
0	1564	64.637773564858	1
0	1574	64.865870672952	1
0	1580	64.930075065055	1
0	1593	65.28412421477	1
0	1611	65.742767107144	1
0	1619	66.038679646113	1
0	1625	66.110085768732	1
0	1642	66.567343926462	1
0	1655	66.985249605811	1
0	1658	67.022183169046	1
0	1663	67.138117802583	1
0	1677	67.534748022352	1
0	1680	67.55165035504	1
0	1701	68.156335483514	1
0	1714	69.431311545886	1
0	1717	69.518903486661	1
0	1722	69.546309458498	1
0	1731	69.80930287072	1
0	1743	70.097050207617	1
0	1753	70.285891972194	1
0	1763	70.45288473701	1
0	1766	70.472427475267	1
0	1782	70.903962892667	1
0	1792	71.056044056313	1
0	1812	71.800301003091	1
0	1823	72.21928693575	1
0	1832	72.589688592413	1
0	1840	72.708195256831	1
0	1850	73.062125349313	1
0	1861	73.303636140123	1
0	1864	73.353423138875	1
0	1872	73.409313249151	1
0	1890	73.905084622763	1
0	1906	74.753081387238	1
0	1909	74.844606854044	1
0	1926	76.734725205463	1
0	1932	77.004351597586	1
0	1938	77.044434324571	1
0	1940	77.059352497988	1
0	1961	77.665987014546	1
0	1972	77.817557324154	1
0	1980	77.971000285951	1
0	1997	78.766198825795	1
0	2003	78.995129436332	1
0	2017	79.322130097259	1
0	2030	79.755885295087	1
0	2039	80.072372653855	1
0	2047	80.228198689098	1
0	2055	80.411634083981	1
0	2058	80.42156082726	1
0	2081	81.126029688684	1
0	2092	81.610283855369	1
0	2098	81.73966307863	1
0	2113	82.377098712991	1
0	2116	82.430812339834	1
0	2121	82.483194007148	1
0	2132	82.814122502305	1
0	2152	83.575362682416	1
0	2158	83.699791551646	1
0	2173	84.650157381489	1
0	2184	85.246881439101	1
0	2187	85.335101362154	1
0	2192	85.414192257171	1
0	2196	85.450643777539	1
0	2217	86.062260352588	1
0	2233	86.871519269117	1
0	2242	87.246112891731	1
0	2255	87.920506221185	1
0	2258	87.937564381296	1
0	2263	88.082459565639	1
0	2274	88.412012680978	1
0	2280	88.422409186219	1
0	2296	88.863623283992	1
0	2313	89.433701640783	1
0	2324	90.548490972016	1
0	2335	90.955805534891	1
0	2346	91.572528192519	1
0	2355	91.90496856	1
0	2368	92.460175652502	1
0	2379	93.421118005438	1
0	2385	93.696024584478	1
0	2401	94.147690271375	1
0	2404	94.165159234669	1
0	2409	94.298568949439	1
0	2430	94.977587073646	1
0	2436	95.216718790571	1
0	2439	95.222205747262	1
0	2461	97.167877688066	1
0	2470	97.487317377732	1
0	2478	97.60405095571	1
0	2488	97.938670275877	1
0	2504	98.803743659895	1
0	2507	98.851670952232	1
0	2514	99.020720037482	1
0	2517	99.046653326324	1
0	2524	99.179465994806	1
0	2540	99.521472966865	1
0	2557	100.005247826734	1
0	2568	100.271060261709	1
0	2579	100.444545917569	1
0	2587	100.588029350053	1
0	2590	100.607064694139	1
0	2592	100.623308316933	1
0	2603	100.818093758378	1
0	2619	101.220026851355	1
0	2639	101.844433410707	1
0	2644	101.897542392316	1
0	2661	102.854129679025	1
0	2664	102.858799166068	1
0	2666	102.887378143952	1
0	2671	103.016932148593	1
0	2699	104.184018669793	1
0	2705	104.327572789023	1
0	2710	104.458958434651	1
0	2716	104.538493781877	1
0	2739	105.221578977704	1
0	2742	105.249309562201	1
0	2744	105.261849030065	1
0	2763	105.866109721219	1
0	2779	106.558121787586	1
0	2785	106.762951331286	1
0	2801	107.258640963588	1
0	2807	107.371487914801	1
0	2822	108.133146294166	1
0	2828	108.429889874138	1
0	2834	108.447730554846	1
0	2841	108.565471297752	1
0	2852	108.848248709705	1
0	2872	109.612218602434	1
0	2875	109.705175584916	1
0	2885	109.969450349527	1
0	2902	110.494897534982	1
0	2911	110.885260697494	1
0	2924	111.299284798531	1
0	2935	112.745127675036	1
0	2946	113.358422264748	1
0	2952	113.533667711203	1
0	2960	113.757618865756	1
0	2970	113.85939290652	1
0	2982	114.257334051036	1
0	2998	115.797212681212	1
0	3004	115.971635110877	1
0	3017	116.325430268311	1
0	3030	117.553997113176	1
0	3041	119.153932154585	1
0	3050	119.537019121046	1
0	3063	120.922240730021	1
0	3069	121.192052899396	1
0	3085	121.680505829645	1
0	3091	121.798997366774	1
0	3094	121.806827837673	1
0	3098	121.914959390082	1
0	3114	122.29451635825	1
0	3127	122.589452888468	1
0	3134	122.704290676989	1
0	3149	123.147868452377	1
0	3155	123.20331391948	1
0	3167	123.522458015038	1
0	3177	123.704905331178	1
0	3187	123.89701473374	1
0	3192	123.986318908437	1
0	3208	124.399434131927	1
0	3224	124.981231574923	1
0	3235	125.893469488036	1
0	3246	126.981809203122	1
0	3252	127.273575020713	1
0	3258	127.284277901139	1
0	3277	128.13647890578	1
0	3283	128.254798803871	1
0	3286	128.340902914352	1
0	3295	128.464709355551	1
0	3317	129.159621075376	1
0	3320	129.221034357761	1
0	3327	129.377658282968	1
0	3347	130.588129150875	1
0	3358	131.060653363518	1
0	3364	131.174454587913	1
0	3377	131.659080016908	1
0	3385	131.835218285216	1
0	3400	132.459696954916	1
0	3403	132.479767821588	1
0	3408	132.574349193516	1
0	3412	132.683141281058	1
0	3428	133.111122712128	1
0	3448	133.968756558855	1
0	3459	134.94910545608	1
0	3470	136.283640438111	1
0	3476	136.388222685371	1
0	3489	136.815100491425	1
0	3492	136.838759838763	1
0	3499	136.979640172701	1
0	3508	137.116862424201	1
0	3511	137.14133012002	1
0	3522	137.376265899382	1
0	3547	138.175591900936	1
0	3550	138.178772922151	1
0	3554	138.246207082975	1
0	3573	138.837035273188	1
0	3582	138.962672028848	1
0	3589	139.066568437633	1
0	3602	139.384378821353	1
0	3619	139.862589780963	1
0	3625	139.978879089993	1
0	3640	140.683994943604	1
0	3651	141.428897125292	1
0	3660	141.744116461981	1
0	3668	142.023151178848	1
0	3679	142.302960857826	1
0	3690	142.568155037939	1
0	3696	142.631328333448	1
0	3715	143.57397012682	1
0	3726	144.047182057575	1
0	3737	145.034488672022	1
0	3743	145.146686996899	1
0	3748	145.257319338663	1
0	3758	145.479771113812	1
0	3761	145.48734920332	1
0	3777	145.892561731259	1
0	3795	146.33637808106	1
0	3798	146.388598467841	1
0	3805	146.514791599786	1
0	3826	147.742749510869	1
0	3829	147.748513422522	1
0	3836	147.967427176764	1
0	3839	148.008298031858	1
0	3853	148.247051383303	1
0	3863	148.46414147325	1
0	3870	148.564587818961	1
0	3873	148.615970441581	1
0	3880	148.678502578883	1
0	3886	148.771320293822	1
0	3905	149.317441130744	1
0	3925	149.864124834049	1
0	3942	150.628060541527	1
0	3948	150.871353604409	1
0	3959	151.104166173655	1
0	3962	151.152360182488	1
0	3972	151.273073186536	1
0	3976	151.370066770907	1
0	3983	151.410948184407	1
0	4011	152.476044642512	1
0	4014	152.501502723317	1
0	4016	152.504673155195	1
0	4018	152.561191938956	1
0	4034	152.971937677495	1
0	4059	154.208373278086	1
0	4070	154.622248205232	1
0	4081	155.240550302377	1
0	4092	155.696638245547	1
0	4098	155.851648056291	1
0	4111	156.196893531361	1
0	4119	156.422187265217	1
0	4135	157.0361573841	1
0	4141	157.334048112292	1
0	4157	158.024093533066	1
0	4166	158.356832448168	1
0	4179	158.773153991685	1
0	4190	159.403650143764	1
0	4193	159.482854770587	1
0	4198	159.52952821172	1
0	4214	160.047777827415	1
0	4225	160.288063790312	1
0	4234	160.422091847502	1
0	4246	160.744769890149	1
0	4262	161.481510986866	1
0	4273	162.459320428665	1
0	4282	162.797063968124	1
0	4295	163.827965015833	1
0	4298	163.863614510136	1
0	4305	164.124384980854	1
0	4325	165.091817755892	1
0	4328	165.139000962608	1
0	4335	165.387298759466	1
0	4353	165.871551056059	1
0	4366	167.01675745631	1
0	4372	167.298353588089	1
0	4375	167.314887557663	1
0	4380	167.359531565851	1
0	4385	167.405002889628	1
0	4413	168.25976514105	1
0	4426	168.82354054023	1
0	4429	168.851337263316	1
0	4431	168.868407408278	1
0	4438	169.097816283934	1
0	4452	169.338089539787	1
0	4467	169.80880575553	1
0	4484	170.486120205415	1
0	4487	170.584841173116	1
0	4497	170.802179142376	1
0	4500	170.858619000276	1
0	4506	170.942887224395	1
0	4530	171.648923954937	1
0	4543	172.390575197793	1
0	4552	172.713125512117	1
0	4555	172.758503341327	1
0	4562	172.860193065171	1
0	4566	172.996074455935	1
0	4582	173.32584931017	1
0	4588	173.423682396274	1
0	4611	174.123967256089	1
0	4617	174.373615168716	1
0	4633	175.306767863598	1
0	4639	175.460791979602	1
0	4652	175.856153531175	1
0	4665	176.815326004806	1
0	4676	177.447836871123	1
0	4687	178.063852692069	1
0	4698	178.542995101944	1
0	4709	179.032326251262	1
0	4715	179.247223707354	1
0	4718	179.307507959945	1
0	4726	179.419444195095	1
0	4742	179.797960024714	1
0	4754	180.115040910258	1
0	4770	180.877895637426	1
0	4781	181.913252434891	1
0	4792	182.942844457286	1
0	4801	183.299097324286	1
0	4814	183.733230373983	1
0	4820	183.97744950655	1
0	4829	184.097340289001	1
0	4841	184.432972113208	1
0	4850	184.562599721327	1
0	4860	184.787638718844	1
0	4875	185.191306063498	1
0	4883	185.312474835585	1
0	4898	185.828005602427	1
0	4901	185.861442581021	1
0	4906	186.007318081689	1
0	4927	187.093994799672	1
0	4938	187.547229821973	1
0	4944	187.651540846162	1
0	4952	187.934028502319	1
0	4955	187.939455048798	1
0	4978	188.646795098448	1
0	4984	188.865385119174	1
0	5000	189.325302803464	1
0	5003	189.352556016448	1
0	5020	190.316184358037	1
0	5026	190.611920439295	1
0	5032	190.663026343556	1
0	5041	190.858293003225	1
0	5061	191.590658985363	1
0	5067	191.697431638651	1
0	5082	192.882117461016	1
0	5091	193.213825360289	1
0	5102	193.554795959848	1
0	5107	193.651410324509	1
0	5109	193.653071782075	1
0	5114	193.721438841382	1
0	5116	193.735073517768	1
0	5134	194.138030261727	1
0	5144	194.350758735093	1
0	5154	194.494595404979	1
0	5164	194.739795776724	1
0	5191	195.641492800123	1
0	5197	195.901261159877	1
0	5213	196.322240627832	1
0	5224	196.779794361951	1
0	5235	197.696255013621	1
0	5246	198.258676633421	1
0	5252	198.364762854745	1
0	5267	199.052429865912	1
0	5273	199.172354445432	1
0	5278	199.342402745061	1
0	5298	199.925782339005	1
1	2	0.893448103126	1
1	13	2.072042711789	1
1	19	2.233417461	1
1	22	2.327405932924	1
1	43	3.016066061121	1
1	46	3.042630803465	1
1	48	3.059667154385	2
1	55	3.244550807095	1
1	57	3.29011253847	2
1	90	4.970763783001	1
1	99	5.332362497513	1
1	104	5.374271967556	1
1	114	5.67612559335	1
1	129	6.05120654375	1
1	137	6.268275796548	1
1	151	6.570622391837	1
1	159	6.734055085235	1
1	169	6.997810634845	1
1	183	7.387505106344	1
1	196	8.085171481721	1
1	202	8.315773521834	1
1	218	8.878393520259	1
1	229	9.410937402142	1
1	235	9.608639916801	1
1	245	9.900594602178	1
1	254	10.010271349506	1
1	266	10.356186008473	1
1	272	10.423844746057	1
1	286	10.838500044591	1
1	302	11.353918510787	1
1	313	13.205059562799	1
1	324	14.187332602017	1
1	335	14.872936979291	1
1	341	15.129178718142	1
1	352	15.342407848503	1
1	368	15.796315791807	1
1	379	16.632169603195	1
1	390	17.279401468182	1
1	401	17.973763605817	1
1	407	18.218895562531	1
1	410	18.241301332666	1
1	427	18.689441690646	1
1	443	19.196685886673	1
1	446	19.260680479076	1
1	463	19.908820493004	1
1	469	20.085523985928	1
1	484	20.618863051989	1
1	493	21.002204919727	1
1	506	21.49615886774	1
1	512	21.729883515605	1
1	526	22.04131051997	1
1	537	22.384474306346	1
1	540	22.437806494926	1
1	544	22.473269593922	2
1	568	23.737958788614	1
1	574	23.839030784408	1
1	582	24.045537814931	1
1	587	24.143841881387	1
1	594	24.241665964929	1
1	617	24.940209102455	1
1	628	25.445522530906	1
1	634	25.692175836766	1
1	650	27.752647985214	1
1	659	28.06824027448	1
1	667	28.186318529676	1
1	682	28.806050503197	1
1	693	29.251105894698	1
1	704	29.789721338043	1
1	713	30.155244774353	1
1	726	30.664570457319	1
1	737	31.169963546767	1
1	748	31.809414704437	1
1	759	32.917488363115	1
1	770	33.771965545668	1
1	776	33.945393969227	1
1	791	34.634895316535	1
1	797	34.751911043534	1
1	802	34.897990553726	1
1	812	35.103972546069	1
1	832	35.65115813123	1
1	843	36.200131622721	1
1	849	36.396684144832	1
1	864	36.911728193466	1
1	870	37.165428755651	1
1	881	37.373851732618	1
1	897	37.869062682316	1
1	908	39.68706352851	1
1	914	39.868795412679	1
1	924	40.108293486305	1
1	940	41.156585845363	1
1	946	41.343825418174	1
1	961	41.870812093668	1
1	972	42.365449903257	1
1	978	42.477249279608	1
1	981	42.51167229077	1
1	997	42.967026711	1
1	1008	43.170273707694	1
1	1011	43.194844716823	1
1	1033	43.784250162144	1
1	1044	44.560228244927	1
1	1055	45.139072513158	1
1	1061	45.409351198469	1
1	1072	45.542902693143	1
1	1082	45.84712609909	1
1	1088	45.931188497129	1
1	1093	45.996976103041	1
1	1106	46.251872653239	1
1	1126	46.904918644826	1
1	1132	47.067989289736	1
1	1145	47.448558601082	1
1	1158	47.979369052637	1
1	1164	48.09402978232	1
1	1167	48.177877506787	1
1	1176	48.379366538277	1
1	1186	48.540217258881	1
1	1198	48.86867857187	1
1	1218	49.612424401932	1
1	1227	49.937046356542	1
1	1238	50.318876106972	1
1	1249	50.640188924684	1
1	1262	51.506237768208	1
1	1268	51.754464848584	1
1	1284	53.255670236856	1
1	1295	53.699931448189	1
1	1306	54.425309230288	1
1	1317	55.285869763754	1
1	1320	55.365652597661	1
1	1330	55.626995802367	1
1	1345	56.012359756529	1
1	1353	56.227569729035	1
1	1364	56.48615828454	1
1	1373	56.601972162989	1
1	1383	56.809083156551	1
1	1400	57.978478778173	1
1	1411	58.520216757866	1
1	1422	60.152154452452	1
1	1433	60.8514811157	1
1	1442	61.172536343825	1
1	1455	61.632367857209	1
1	1464	61.951661083941	1
1	1467	62.011651596397	1
1	1479	62.261033366884	1
1	1494	62.746407079284	1
1	1502	62.941175432659	1
1	1505	62.965431129843	1
1	1516	63.174797868258	1
1	1522	63.260404737306	1
1	1530	63.39467751198	1
1	1555	64.429685993405	1
1	1558	64.430027130951	1
1	1565	64.637773564858	1
1	1575	64.865870672952	1
1	1581	64.930075065055	1
1	1594	65.28412421477	1
1	1612	65.742767107144	1
1	1620	66.038679646113	1
1	1626	66.110085768732	1
1	1643	66.567343926462	1
1	1656	66.985249605811	1
1	1659	67.022183169046	1
1	1664	67.138117802583	1
1	1678	67.534748022352	1
1	1681	67.55165035504	1
1	1702	68.156335483514	1
1	1715	69.431311545886	1
1	1718	69.518903486661	1
1	1723	69.546309458498	1
1	1732	69.80930287072	1
1	1744	70.097050207617	1
1	1754	70.285891972194	1
1	1764	70.45288473701	1
1	1767	70.472427475267	1
1	1783	70.903962892667	1
1	1793	71.056044056313	1
1	1813	71.800301003091	1
1	1824	72.21928693575	1
1	1833	72.589688592413	1
1	1841	72.708195256831	1
1	1851	73.062125349313	1
1	1862	73.303636140123	1
1	1865	73.353423138875	1
1	1873	73.409313249151	1
1	1891	73.905084622763	1
1	1907	74.753081387238	1
1	1910	74.844606854044	1
1	1927	76.734725205463	1
1	1933	77.004351597586	1
1	1939	77.044434324571	1
1	1941	77.059352497988	2
1	1962	77.665987014546	1
1	1973	77.817557324154	1
1	1981	77.971000285951	1
1	1998	78.766198825795	1
1	2004	78.995129436332	1
1	2018	79.322130097259	1
1	2031	79.755885295087	1
1	2040	80.072372653855	1
1	2048	80.228198689098	1
1	2056	80.411634083981	1
1	2059	80.42156082726	1
1	2082	81.126029688684	1
1	2093	81.610283855369	1
1	2099	81.73966307863	1
1	2114	82.377098712991	1
1	2117	82.430812339834	1
1	2122	82.483194007148	1
1	2133	82.814122502305	1
1	2153	83.575362682416	1
1	2159	83.699791551646	1
1	2174	84.650157381489	1
1	2185	85.246881439101	1
1	2188	85.335101362154	1
1	2193	85.414192257171	1
1	2197	85.450643777539	1
1	2218	86.062260352588	1
1	2234	86.871519269117	1
1	2243	87.246112891731	1
1	2256	87.920506221185	1
1	2259	87.937564381296	1
1	2264	88.082459565639	1
1	2275	88.412012680978	1
1	2281	88.422409186219	1
1	2297	88.863623283992	1
1	2314	89.433701640783	1
1	2325	90.548490972016	1
1	2336	90.955805534891	1
1	2347	91.572528192519	1
1	2356	91.90496856	1
1	2369	92.460175652502	1
1	2380	93.421118005438	1
1	2386	93.696024584478	1
1	2402	94.147690271375	1
1	2405	94.165159234669	1
1	2410	94.298568949439	1
1	2431	94.977587073646	1
1	2437	95.216718790571	1
1	2440	95.222205747262	1
1	2462	97.167877688066	1
1	2471	97.487317377732	1
1	2479	97.60405095571	1
1	2489	97.938670275877	1
1	2505	98.803743659895	1
1	2508	98.851670952232	1
1	2515	99.020720037482	1
1	2518	99.046653326324	1
1	2525	99.179465994806	1
1	2541	99.521472966865	1
1	2558	100.005247826734	1
1	2569	100.271060261709	1
1	2580	100.444545917569	1
1	2588	100.588029350053	1
1	2591	100.607064694139	1
1	2593	100.623308316933	2
1	2604	100.818093758378	1
1	2620	101.220026851355	1
1	2640	101.844433410707	1
1	2645	101.897542392316	1
1	2662	102.854129679025	1
1	2665	102.858799166068	1
1	2667	102.887378143952	2
1	2672	103.016932148593	2
1	2700	104.184018669793	1
1	2706	104.327572789023	1
1	2711	104.458958434651	1
1	2717	104.538493781877	1
1	2740	105.221578977704	1
1	2743	105.249309562201	1
1	2745	105.261849030065	2
1	2764	105.866109721219	1
1	2780	106.558121787586	1
1	2786	106.762951331286	1
1	2802	107.258640963588	1
1	2808	107.371487914801	1
1	2823	108.133146294166	1
1	2829	108.429889874138	1
1	2835	108.447730554846	1
1	2842	108.565471297752	1
1	2853	108.848248709705	1
1	2873	109.612218602434	1
1	2876	109.705175584916	1
1	2886	109.969450349527	1
1	2903	110.494897534982	1
1	2912	110.885260697494	1
1	2925	111.299284798531	1
1	2936	112.745127675036	1
1	2947	113.358422264748	1
1	2953	113.533667711203	1
1	2961	113.757618865756	1
1	2971	113.85939290652	1
1	2983	114.257334051036	1
1	2999	115.797212681212	1
1	3005	115.971635110877	1
1	3018	116.325430268311	1
1	3031	117.553997113176	1
1	3042	119.153932154585	1
1	3051	119.537019121046	1
1	3064	120.922240730021	1
1	3070	121.192052899396	1
1	3086	121.680505829645	1
1	3092	121.798997366774	1
1	3095	121.806827837673	1
1	3099	121.914959390082	1
1	3115	122.29451635825	1
1	3128	122.589452888468	1
1	3135	122.704290676989	1
1	3150	123.147868452377	1
1	3156	123.20331391948	1
1	3168	123.522458015038	1
1	3178	123.704905331178	1
1	3188	123.89701473374	1
1	3193	123.986318908437	1
1	3209	124.399434131927	1
1	3225	124.981231574923	1
1	3236	125.893469488036	1
1	3247	126.981809203122	1
1	3253	127.273575020713	1
1	3259	127.284277901139	1
1	3278	128.13647890578	1
1	3284	128.254798803871	1
1	3287	128.340902914352	1
1	3296	128.464709355551	1
1	3318	129.159621075376	1
1	3321	129.221034357761	1
1	3328	129.377658282968	1
1	3348	130.588129150875	1
1	3359	131.060653363518	1
1	3365	131.174454587913	1
1	3378	131.659080016908	1
1	3386	131.835218285216	1
1	3401	132.459696954916	1
1	3404	132.479767821588	1
1	3409	132.574349193516	1
1	3413	132.683141281058	1
1	3429	133.111122712128	1
1	3449	133.968756558855	1
1	3460	134.94910545608	1
1	3471	136.283640438111	1
1	3477	136.388222685371	1
1	3490	136.815100491425	1
1	3493	136.838759838763	1
1	3500	136.979640172701	1
1	3509	137.116862424201	1
1	3512	137.14133012002	1
1	3523	137.376265899382	1
1	3548	138.175591900936	1
1	3551	138.178772922151	1
1	3555	138.246207082975	2
1	3574	138.837035273188	1
1	3583	138.962672028848	1
1	3590	139.066568437633	1
1	3603	139.384378821353	1
1	3620	139.862589780963	1
1	3626	139.978879089993	1
1	3641	140.683994943604	1
1	3652	141.428897125292	1
1	3661	141.744116461981	1
1	3669	142.023151178848	1
1	3680	142.302960857826	1
1	3691	142.568155037939	1
1	3697	142.631328333448	1
1	3716	143.57397012682	1
1	3727	144.047182057575	1
1	3738	145.034488672022	1
1	3744	145.146686996899	1
1	3749	145.257319338663	1
1	3759	145.479771113812	1
1	3762	145.48734920332	1
1	3778	145.892561731259	1
1	3796	146.33637808106	1
1	3799	146.388598467841	1
1	3806	146.514791599786	1
1	3827	147.742749510869	1
1	3830	147.748513422522	1
1	3837	147.967427176764	1
1	3840	148.008298031858	1
1	3854	148.247051383303	1
1	3864	148.46414147325	1
1	3871	148.564587818961	1
1	3874	148.615970441581	1
1	3881	148.678502578883	1
1	3887	148.771320293822	1
1	3906	149.317441130744	1
1	3926	149.864124834049	1
1	3943	150.628060541527	1
1	3949	150.871353604409	1
1	3960	151.104166173655	1
1	3963	151.152360182488	1
1	3973	151.273073186536	1
1	3977	151.370066770907	1
1	3984	151.410948184407	1
1	4012	152.476044642512	1
1	4015	152.501502723317	1
1	4017	152.504673155195	2
1	4019	152.561191938956	3
1	4035	152.971937677495	1
1	4060	154.208373278086	1
1	4071	154.622248205232	1
1	4082	155.240550302377	1
1	4093	155.696638245547	1
1	4099	155.851648056291	1
1	4112	156.196893531361	1
1	4120	156.422187265217	1
1	4136	157.0361573841	1
1	4142	157.334048112292	1
1	4158	158.024093533066	1
1	4167	158.356832448168	1
1	4180	158.773153991685	1
1	4191	159.403650143764	1
1	4194	159.482854770587	1
1	4199	159.52952821172	1
1	4215	160.047777827415	1
1	4226	160.288063790312	1
1	4235	160.422091847502	1
1	4247	160.744769890149	1
1	4263	161.481510986866	1
1	4274	162.459320428665	1
1	4283	162.797063968124	1
1	4296	163.827965015833	1
1	4299	163.863614510136	1
1	4306	164.124384980854	1
1	4326	165.091817755892	1
1	4329	165.139000962608	1
1	4336	165.387298759466	1
1	4354	165.871551056059	1
1	4367	167.01675745631	1
1	4373	167.298353588089	1
1	4376	167.314887557663	1
1	4381	167.359531565851	2
1	4386	167.405002889628	2
1	4414	168.25976514105	1
1	4427	168.82354054023	1
1	4430	168.851337263316	1
1	4432	168.868407408278	2
1	4439	169.097816283934	1
1	4453	169.338089539787	1
1	4468	169.80880575553	1
1	4485	170.486120205415	1
1	4488	170.584841173116	1
1	4498	170.802179142376	1
1	4501	170.858619000276	1
1	4507	170.942887224395	1
1	4531	171.648923954937	1
1	4544	172.390575197793	1
1	4553	172.713125512117	1
1	4556	172.758503341327	1
1	4563	172.860193065171	1
1	4567	172.996074455935	1
1	4583	173.32584931017	1
1	4589	173.423682396274	1
1	4612	174.123967256089	1
1	4618	174.373615168716	1
1	4634	175.306767863598	1
1	4640	175.460791979602	1
1	4653	175.856153531175	1
1	4666	176.815326004806	1
1	4677	177.447836871123	1
1	4688	178.063852692069	1
1	4699	178.542995101944	1
1	4710	179.032326251262	1
1	4716	179.247223707354	1
1	4719	179.307507959945	1
1	4727	179.419444195095	1
1	4743	179.797960024714	1
1	4755	180.115040910258	1
1	4771	180.877895637426	1
1	4782	181.913252434891	1
1	4793	182.942844457286	1
1	4802	183.299097324286	1
1	4815	183.733230373983	1
1	4821	183.97744950655	1
1	4830	184.097340289001	1
1	4842	184.432972113208	1
1	4851	184.562599721327	1
1	4861	184.787638718844	1
1	4876	185.191306063498	1
1	4884	185.312474835585	1
1	4899	185.828005602427	1
1	4902	185.861442581021	1
1	4907	186.007318081689	1
1	4928	187.093994799672	1
1	4939	187.547229821973	1
1	4945	187.651540846162	1
1	4953	187.934028502319	1
1	4956	187.939455048798	1
1	4979	188.646795098448	1
1	4985	188.865385119174	1
1	5001	189.325302803464	1
1	5004	189.352556016448	1
1	5021	190.316184358037	1
1	5027	190.611920439295	1
1	5033	190.663026343556	1
1	5042	190.858293003225	1
1	5062	191.590658985363	1
1	5068	191.697431638651	1
1	5083	192.882117461016	1
1	5092	193.213825360289	1
1	5103	193.554795959848	1
1	5108	193.651410324509	1
1	5110	193.653071782075	2
1	5115	193.721438841382	2
1	5117	193.735073517768	3
1	5135	194.138030261727	1
1	5145	194.350758735093	1
1	5155	194.494595404979	1
1	5165	194.739795776724	1
1	5192	195.641492800123	1
1	5198	195.901261159877	1
1	5214	196.322240627832	1
1	5225	196.779794361951	1
1	5236	197.696255013621	1
1	5247	198.258676633421	1
1	5253	198.364762854745	1
1	5268	199.052429865912	1
1	5274	199.172354445432	1
1	5279	199.342402745061	1
1	5299	199.925782339005	1
2	5	0.993548103126	1
2	16	2.172142711789	1
2	24	2.333517461	1
2	29	2.433517461	1
2	50	3.116166061121	1
2	53	3.216166061121	1
2	60	3.316166061121	1
2	64	3.416166061121	2
2	69	3.516166061121	2
2	93	5.070863783001	1
2	106	5.432462497513	1
2	109	5.532462497513	1
2	119	5.77622559335	1
2	134	6.15130654375	1
2	143	6.368375796548	1
2	156	6.670722391837	1
2	162	6.834155085235	1
2	175	7.097910634845	1
2	188	7.487605106344	1
2	199	8.185271481721	1
2	208	8.415873521834	1
2	221	8.978493520259	1
2	232	9.511037402142	1
2	238	9.708739916801	1
2	251	10.000694602178	1
2	259	10.110371349506	1
2	274	10.456286008473	1
2	279	10.556286008473	1
2	292	10.938600044591	1
2	305	11.454018510787	1
2	316	13.305159562799	1
2	327	14.287432602017	1
2	338	14.973036979291	1
2	347	15.229278718142	1
2	358	15.442507848503	1
2	371	15.896415791807	1
2	382	16.732269603195	1
2	393	17.379501468182	1
2	404	18.073863605817	1
2	415	18.318995562531	1
2	420	18.418995562531	1
2	433	18.789541690646	1
2	448	19.296785886673	1
2	451	19.396785886673	1
2	466	20.008920493004	1
2	472	20.185623985928	1
2	487	20.718963051989	1
2	498	21.102304919727	1
2	509	21.59625886774	1
2	518	21.829983515605	1
2	531	22.14141051997	1
2	546	22.484574306346	1
2	549	22.584574306346	1
2	552	22.684574306346	1
2	571	23.838058788614	1
2	577	23.939130784408	1
2	589	24.145637814931	1
2	596	24.245637814931	1
2	600	24.345637814931	2
2	620	25.040309102455	1
2	631	25.545622530906	1
2	640	25.792275836766	1
2	653	27.852747985214	1
2	664	28.16834027448	1
2	670	28.286418529676	1
2	685	28.906150503197	1
2	696	29.351205894698	1
2	707	29.889821338043	1
2	718	30.255344774353	1
2	729	30.764670457319	1
2	740	31.270063546767	1
2	751	31.909514704437	1
2	762	33.017588363115	1
2	773	33.872065545668	1
2	779	34.045493969227	1
2	794	34.734995316535	1
2	800	34.852011043534	1
2	808	34.998090553726	1
2	818	35.204072546069	1
2	835	35.75125813123	1
2	846	36.300231622721	1
2	852	36.496784144832	1
2	867	37.011828193466	1
2	876	37.265528755651	1
2	887	37.473951732618	1
2	900	37.969162682316	1
2	911	39.78716352851	1
2	917	39.968895412679	1
2	930	40.208393486305	1
2	943	41.256685845363	1
2	949	41.443925418174	1
2	964	41.970912093668	1
2	975	42.465549903257	1
2	983	42.577349279608	1
2	988	42.677349279608	1
2	1003	43.067126711	1
2	1016	43.270373707694	1
2	1021	43.370373707694	1
2	1036	43.884350162144	1
2	1047	44.660328244927	1
2	1058	45.239172513158	1
2	1067	45.509451198469	1
2	1075	45.643002693143	1
2	1090	45.94722609909	1
2	1097	46.04722609909	1
2	1100	46.14722609909	1
2	1112	46.351972653239	1
2	1129	47.005018644826	1
2	1135	47.168089289736	1
2	1150	47.548658601082	1
2	1161	48.079469052637	1
2	1169	48.19412978232	1
2	1174	48.29412978232	1
2	1181	48.479466538277	2
2	1191	48.640317258881	2
2	1204	48.96877857187	1
2	1221	49.712524401932	1
2	1232	50.037146356542	1
2	1243	50.418976106972	1
2	1254	50.740288924684	1
2	1265	51.606337768208	1
2	1274	51.854564848584	1
2	1287	53.355770236856	1
2	1298	53.800031448189	1
2	1309	54.525409230288	1
2	1322	55.385969763754	1