version 3
run BaseVersion-2-20240511-20:48:36-11938
attr configname BaseVersion
attr datetime 20240511-20:48:36
attr datetimef 20240511-204836
attr experiment BaseVersion
attr inifile omnetpp.ini
attr iterationvars $genInterval=0.2
attr iterationvarsd genInterval=0.2
attr iterationvarsf genInterval=0.2-
attr measurement $genInterval=0.2
attr network Network
attr processid 11938
attr repetition 0
attr replication #0
attr resultdir results
attr runnumber 2
attr seedset 2
itervar genInterval 0.2
config network Network
config sim-time-limit 200s
config Network.nodeTx.gen.generationInterval exponential(0.2)
config Network.nodeTx.gen.packetByteSize 12500
config Network.nodeTx.queue.bufferSize 200
config Network.nodeRx.queue.bufferSize 200
config Network.queue.bufferSize 200

vector 0 Network.nodeTx.gen packetGen ETV
vector 1 Network.nodeTx.queue bufferSize ETV
vector 2 Network.queue bufferSize ETV
vector 3 Network.nodeRx.queue bufferSize ETV
vector 4 Network.nodeRx.sink Delay ETV
vector 5 Network.nodeRx.sink packetUsed ETV
0	1	0.114538397925	1
0	4	0.15547197478	1
0	6	0.160725622149	1
0	23	0.69702927424	1
0	33	0.85658085902	1
0	50	1.446849733555	1
0	56	1.56114979718	1
0	61	1.693770058208	1
0	69	1.802842361652	1
0	74	1.880132695456	1
0	81	1.960328180121	1
0	83	1.993876258359	1
0	87	2.039670517305	1
0	100	2.27970830462	1
0	111	2.472841777648	1
0	114	2.498397212233	1
0	119	2.569633561714	1
0	127	2.702419565487	1
0	132	2.764494358611	1
0	143	2.964830169755	1
0	154	3.158944621383	1
0	166	3.499943640207	1
0	176	3.650583421909	1
0	186	3.880370524256	1
0	189	3.90927857908	1
0	198	4.047333308752	1
0	207	4.191469101016	1
0	217	4.368232347101	1
0	220	4.409008370493	1
0	233	4.663426033318	1
0	246	4.971161491871	1
0	249	5.03097699788	1
0	265	5.415772884114	1
0	275	5.573795849995	1
0	282	5.710133206656	1
0	290	5.814749231701	1
0	305	6.189640309045	1
0	308	6.228596388112	1
0	310	6.245195653213	1
0	335	6.944071509278	1
0	345	7.084810467119	1
0	351	7.155295367916	1
0	353	7.168798411447	1
0	357	7.236697040012	1
0	366	7.348463075238	1
0	368	7.373166461457	1
0	372	7.393469140195	1
0	374	7.433581000757	1
0	378	7.460781597482	1
0	387	7.597139885006	1
0	396	7.778777270334	1
0	404	7.945611213717	1
0	411	7.996850996407	1
0	413	8.047014378372	1
0	417	8.06963595367	1
0	433	8.36140137449	1
0	437	8.411172176191	1
0	446	8.58339450889	1
0	452	8.669497648598	1
0	456	8.706239748247	1
0	463	8.83238222931	1
0	469	8.923988187905	1
0	474	8.969053180419	1
0	482	9.095528925266	1
0	493	9.30008526162	1
0	504	9.512502484105	1
0	511	9.644471981036	1
0	527	9.959566005198	1
0	534	10.100301174566	1
0	544	10.317872321556	1
0	550	10.415715368928	1
0	561	10.605596832298	1
0	573	10.921220975991	1
0	603	11.860064909484	1
0	611	12.033567014881	1
0	616	12.059016632358	1
0	618	12.094435346442	1
0	620	12.126601718384	1
0	636	12.367898471559	1
0	652	12.750387208039	1
0	672	13.418319719661	1
0	682	13.560796272331	1
0	689	13.699429054061	1
0	695	13.748422527581	1
0	711	14.189006788557	1
0	741	15.189132650318	1
0	746	15.272725324637	1
0	753	15.348479487453	1
0	761	15.515949580353	1
0	767	15.575828505441	1
0	773	15.687393072177	1
0	787	16.018673071187	1
0	794	16.133478438999	1
0	800	16.22076911568	1
0	813	16.520490860361	1
0	821	16.64665401336	1
0	831	16.800057617898	1
0	836	16.864146404648	1
0	857	17.478851537593	1
0	870	17.798947557242	1
0	880	17.956091368242	1
0	892	18.292641980079	1
0	895	18.309774238733	1
0	916	18.901424635715	1
0	922	18.992673941087	1
0	935	19.338864736977	1
0	950	19.719425963769	1
0	960	19.86420461942	1
0	968	19.968472441597	1
0	971	20.018420814404	1
0	973	20.023936654421	1
0	988	20.298518651389	1
0	994	20.355303742053	1
0	1000	20.46826782324	1
0	1002	20.48216878838	1
0	1020	20.920563211166	1
0	1050	21.93888924218	1
0	1070	22.505589148907	1
0	1093	23.210807401393	1
0	1103	23.350645381586	1
0	1115	23.672791481638	1
0	1125	23.914952054823	1
0	1135	24.099120830404	1
0	1145	24.344324981885	1
0	1158	24.633924778554	1
0	1168	24.765103441377	1
0	1171	24.80218280446	1
0	1194	25.447532803154	1
0	1197	25.516884297978	1
0	1204	25.627917323808	1
0	1215	25.776412910837	1
0	1220	25.854392556584	1
0	1224	25.942597837071	1
0	1238	26.229635942306	1
0	1241	26.23898697221	1
0	1262	26.778493792566	1
0	1287	27.595215574836	1
0	1297	27.843631689264	1
0	1307	27.960079873881	1
0	1314	28.105806047531	1
0	1322	28.246042095029	1
0	1339	28.677689872083	1
0	1345	28.755866653631	1
0	1354	28.917189791712	1
0	1357	28.977341836083	1
0	1368	29.147837251862	1
0	1374	29.245679396786	1
0	1380	29.345832440512	1
0	1396	29.702610820427	1
0	1414	30.224832042239	1
0	1426	30.491760034912	1
0	1429	30.492872004589	1
0	1434	30.58822467084	1
0	1448	30.848982195561	1
0	1451	30.851602756775	1
0	1455	30.93953756766	1
0	1471	31.258846785212	1
0	1476	31.306735226883	1
0	1480	31.369509994182	1
0	1487	31.459401984934	1
0	1496	31.634184721056	1
0	1512	32.055424451287	1
0	1515	32.060601059226	1
0	1519	32.150900530756	1
0	1532	32.367961982862	1
0	1542	32.50787831721	1
0	1548	32.605927234423	1
0	1561	32.89769014539	1
0	1569	33.035152511339	1
0	1586	33.52694315819	1
0	1594	33.634139653392	1
0	1606	33.984303092362	1
0	1612	34.070728133271	1
0	1618	34.176847573414	1
0	1629	34.336984209951	1
0	1639	34.536290673886	1
0	1662	35.258013898711	1
0	1667	35.341697102365	1
0	1671	35.365628709361	1
0	1678	35.461782725693	1
0	1682	35.536942198603	1
0	1708	36.19340958722	1
0	1711	36.201948859492	1
0	1722	36.410214364026	1
0	1732	36.678401908401	1
0	1754	37.311685491237	1
0	1764	37.525989447021	1
0	1777	37.851359299073	1
0	1782	37.899680829767	1
0	1786	37.95179435631	1
0	1793	38.059623408465	1
0	1809	38.482350568723	1
0	1819	38.688826694538	1
0	1829	38.86836777888	1
0	1839	39.085002982291	1
0	1854	39.393519877343	1
0	1857	39.430900797626	1
0	1863	39.582819930606	1
0	1882	40.009645486039	1
0	1899	40.699873733666	1
0	1908	41.00089666264	1
0	1916	41.172008021219	1
0	1919	41.200771520949	1
0	1926	41.330346409994	1
0	1942	41.736730759263	1
0	1949	41.846069120633	1
0	1962	42.122352677418	1
0	1972	42.305101459242	1
0	1984	42.625579674372	1
0	1987	42.648117699772	1
0	1997	42.804883221121	1
0	2001	42.89684875054	1
0	2008	42.946755988383	1
0	2010	42.995375857782	1
0	2030	43.496704840324	1
0	2045	43.825936776937	1
0	2053	44.005275859446	1
0	2065	44.325391899648	1
0	2071	44.410394254519	1
0	2082	44.572123582704	1
0	2087	44.633368440747	1
0	2103	45.084405216923	1
0	2121	45.57489034433	1
0	2134	46.104299900024	1
0	2140	46.213154135246	1
0	2155	46.973191353917	1
0	2161	47.128580394369	1
0	2176	47.628102730248	1
0	2182	47.815627139661	1
0	2185	47.823793879214	1
0	2199	48.173821238639	1
0	2211	48.437789638845	1
0	2222	48.633190650618	1
0	2237	49.086583815089	1
0	2240	49.125473694125	1
0	2252	49.489296392139	1
0	2261	49.66823030273	1
0	2271	49.822000103262	1
0	2278	49.956381443355	1
0	2284	50.033902134708	1
0	2295	50.192675952636	1
0	2302	50.293927829709	1
0	2312	50.534403060714	1
0	2318	50.599393806984	1
0	2322	50.655816305562	1
0	2343	51.206367386039	1
0	2346	51.247680517458	1
0	2352	51.372308722291	1
0	2357	51.395746572508	1
0	2372	51.778246042068	1
0	2378	51.842303419809	1
0	2384	51.890149716735	1
0	2386	51.892210303672	1
0	2388	51.892235022035	1
0	2399	52.09073968206	1
0	2401	52.110239375031	1
0	2405	52.180199757311	1
0	2410	52.21870235336	1
0	2412	52.260177690232	1
0	2423	52.404840900873	1
0	2425	52.424868635446	1
0	2445	52.848905261922	1
0	2451	52.915652085353	1
0	2467	53.22288206903	1
0	2470	53.27127711618	1
0	2479	53.422205552125	1
0	2483	53.489469046899	1
0	2489	53.553465440673	1
0	2496	53.680973826088	1
0	2498	53.686321516835	1
0	2509	53.845799544929	1
0	2525	54.253395937147	1
0	2540	54.626407984492	1
0	2545	54.690845536008	1
0	2571	55.58409605986	1
0	2577	55.61547603422	1
0	2579	55.625496537354	1
0	2585	55.766302427062	1
0	2592	55.819126332898	1
0	2598	55.90074845304	1
0	2609	56.106926897647	1
0	2611	56.142201657496	1
0	2613	56.177421822684	1
0	2620	56.226932119129	1
0	2640	56.635200861936	1
0	2655	56.997410912675	1
0	2658	57.046438245625	1
0	2671	57.301280124008	1
0	2681	57.572049464783	1
0	2684	57.582621672512	1
0	2698	57.794319593717	1
0	2708	57.989566138003	1
0	2720	58.31034232846	1
0	2723	58.377792226663	1
0	2725	58.38414146286	1
0	2743	58.719237724323	1
0	2746	58.771400065648	1
0	2757	58.929275611809	1
0	2767	59.173179213375	1
0	2770	59.176867012207	1
0	2775	59.195194152009	1
0	2777	59.198442441269	1
0	2779	59.204655861538	1
0	2803	59.751439425635	1
0	2809	59.839803511361	1
0	2815	59.938854894206	1
0	2826	60.117068200687	1
0	2844	60.600119357504	1
0	2847	60.61084650662	1
0	2860	60.95321304545	1
0	2863	60.966796807333	1
0	2865	60.985740361554	1
0	2870	60.994635507795	1
0	2874	61.083343779103	1
0	2880	61.183898987429	1
0	2882	61.187732519333	1
0	2896	61.408514005627	1
0	2902	61.528091123163	1
0	2906	61.572227219134	1
0	2908	61.578395003286	1
0	2931	61.99631997382	1
0	2935	62.05935912423	1
0	2941	62.172622950384	1
0	2943	62.173140133403	1
0	2954	62.366468323102	1
0	2961	62.480210800826	1
0	2965	62.548829108834	1
0	2976	62.725775022858	1
0	2987	62.916809699952	1
0	3015	63.882079061863	1
0	3037	64.496428859606	1
0	3045	64.610799217683	1
0	3052	64.729645995559	1
0	3058	64.819663415212	1
0	3062	64.866062395687	1
0	3078	65.278976670396	1
0	3088	65.389781513813	1
0	3095	65.522520070678	1
0	3103	65.640124143697	1
0	3115	65.912531950646	1
0	3123	66.054231828715	1
0	3135	66.334863747265	1
0	3143	66.484060818603	1
0	3148	66.562279554075	1
0	3150	66.57095067578	1
0	3166	66.836821145509	1
0	3169	66.872746764906	1
0	3173	66.913804970954	1
0	3180	67.033454998922	1
0	3184	67.061788855317	1
0	3197	67.307969408143	1
0	3199	67.309973799832	1
0	3215	67.610618472986	1
0	3220	67.703993316757	1
0	3234	68.004202419704	1
0	3237	68.006374354937	1
0	3243	68.146118390149	1
0	3259	68.523502165948	1
0	3279	69.151642665778	1
0	3285	69.207365141514	1
0	3289	69.288020754949	1
0	3302	69.515924646161	1
0	3310	69.647271557351	1
0	3320	69.873378695398	1
0	3332	70.149340978427	1
0	3347	70.583349768606	1
0	3362	70.973509508534	1
0	3368	71.006854041402	1
0	3374	71.113898215614	1
0	3395	71.700239955955	1
0	3408	72.077917624745	1
0	3413	72.147473049619	1
0	3420	72.265075926599	1
0	3433	72.531892632521	1
0	3443	72.783470812055	1
0	3453	72.912547643047	1
0	3456	72.914244493973	1
0	3458	72.950277385163	1
0	3460	72.955382268682	1
0	3478	73.306799798021	1
0	3497	73.870989259844	1
0	3507	74.026163673755	1
0	3510	74.047711442085	1
0	3516	74.135155985845	1
0	3527	74.352078803034	1
0	3542	74.721107920575	1
0	3545	74.787715996194	1
0	3550	74.794180323997	1
0	3554	74.839019732303	1
0	3556	74.853047417601	1
0	3562	74.951361255186	1
0	3573	75.149230993241	1
0	3594	75.669703253374	1
0	3604	75.871243887264	1
0	3614	76.040165480815	1
0	3626	76.333872082221	1
0	3644	76.830968523428	1
0	3651	76.947428776199	1
0	3664	77.189738555813	1
0	3676	77.580784925414	1
0	3686	77.719901536445	1
0	3692	77.816045732294	1
0	3700	77.957124840855	1
0	3723	78.626356794177	1
0	3726	78.675746930992	1
0	3739	78.978847093947	1
0	3742	78.97978197972	1
0	3751	79.090798358442	1
0	3758	79.198999059863	1
0	3762	79.283958662665	1
0	3771	79.44969528609	1
0	3782	79.604645973064	1
0	3797	80.023049014606	1
0	3804	80.135899183632	1
0	3814	80.362282232758	1
0	3827	80.667515871252	1
0	3842	81.03696993997	1
0	3852	81.257089091058	1
0	3869	81.778263501211	1
0	3882	82.014196868138	1
0	3899	82.580633629165	1
0	3905	82.664903720693	1
0	3921	83.003488446037	1
0	3928	83.174988592144	1
0	3934	83.203161862266	1
0	3940	83.311730862941	1
0	3947	83.396853208208	1
0	3949	83.411066323334	1
0	3951	83.457832033589	1
0	3955	83.478360004392	1
0	3975	83.882415805737	1
0	3980	83.933729028447	1
0	3994	84.248090236364	1
0	4009	84.642786332968	1
0	4014	84.728635964661	1
0	4021	84.794575807089	1
0	4029	84.962970468453	1
0	4035	84.989726711916	1
0	4048	85.316812814517	1
0	4051	85.332245361404	1
0	4067	85.690390853396	1
0	4070	85.769250273953	1
0	4077	85.815332673931	1
0	4090	86.098275259696	1
0	4100	86.360646411135	1
0	4108	86.465901837112	1
0	4123	86.791233062371	1
0	4133	87.073760962699	1
0	4136	87.082578308983	1
0	4140	87.145569165232	1
0	4142	87.168244880166	1
0	4162	87.570497174682	1
0	4170	87.684712696832	1
0	4195	88.414639569424	1
0	4198	88.464557922613	1
0	4211	88.746685995222	1
0	4226	89.171778168069	1
0	4246	89.760874770379	1
0	4259	90.01524484665	1
0	4262	90.055737810242	1
0	4275	90.305397503194	1
0	4300	91.178704641119	1
0	4313	91.472517834891	1
0	4316	91.480769708533	1
0	4320	91.561088339797	1
0	4327	91.66166447979	1
0	4333	91.713576784119	1
0	4344	91.896109438719	1
0	4355	92.092993356585	1
0	4358	92.125611637513	1
0	4365	92.232662368501	1
0	4367	92.271001719533	1
0	4390	92.823232033618	1
0	4393	92.855424609075	1
0	4404	93.061121979142	1
0	4407	93.063787063973	1
0	4413	93.16163262139	1
0	4415	93.161941006093	1
0	4433	93.548310440149	1
0	4436	93.556739413357	1
0	4443	93.652602408398	1
0	4449	93.763501925632	1
0	4454	93.80278030007	1
0	4477	94.469844806961	1
0	4489	94.774184643728	1
0	4495	94.814531110753	1
0	4501	94.942341936171	1
0	4515	95.215670293401	1
0	4518	95.275750929877	1
0	4524	95.358752005628	1
0	4538	95.594542521631	1
0	4548	95.805132030947	1
0	4573	96.592447203078	1
0	4583	96.797398728676	1
0	4586	96.853938587772	1
0	4592	96.904427988422	1
0	4606	97.216789861912	1
0	4618	97.494251447363	1
0	4628	97.78163028789	1
0	4638	97.902686234103	1
0	4641	97.928261952306	1
0	4643	97.966892679499	1
0	4661	98.33204190205	1
0	4667	98.39091993485	1
0	4673	98.514802240105	1
0	4684	98.773457841182	1
0	4690	98.800342802212	1
0	4696	98.89952175211	1
0	4703	99.053244000393	1
0	4709	99.150986213271	1
0	4716	99.221327319178	1
0	4727	99.486695047691	1
0	4732	99.52534506441	1
0	4756	100.251854841056	1
0	4759	100.268365617133	1
0	4763	100.323869066557	1
0	4767	100.368222739873	1
0	4772	100.414513020897	1
0	4778	100.526792511291	1
0	4785	100.637264226043	1
0	4796	100.842603552606	1
0	4811	101.095726970532	1
0	4814	101.114013928442	1
0	4830	101.495680145899	1
0	4840	101.747246718349	1
0	4846	101.833626053314	1
0	4850	101.855086268724	1
0	4854	101.945375925298	1
0	4858	101.983995586867	1
0	4865	102.065978476496	1
0	4878	102.315857300222	1
0	4885	102.420092579224	1
0	4901	102.85311630657	1
0	4904	102.865556845442	1
0	4930	103.682099741176	1
0	4935	103.709686786807	1
0	4946	103.921319262199	1
0	4954	104.067499469178	1
0	4964	104.197416018077	1
0	4979	104.627426056449	1
0	4982	104.645802531365	1
0	4984	104.681469857554	1
0	4995	104.845189623405	1
0	5008	105.105626550413	1
0	5011	105.145597478864	1
0	5016	105.194753884991	1
0	5024	105.339228739674	1
0	5040	105.699549315823	1
0	5048	105.887323136676	1
0	5053	105.908545442282	1
0	5067	106.26675237886	1
0	5072	106.357729164766	1
0	5079	106.435967827362	1
0	5090	106.613847501247	1
0	5117	107.513327728903	1
0	5125	107.640565820141	1
0	5157	108.698249627425	1
0	5160	108.789355112011	1
0	5176	109.139268535051	1
0	5199	109.844265550689	1
0	5209	110.081199313537	1
0	5219	110.233221267557	1
0	5231	110.497824942255	1
0	5239	110.600923889704	1
0	5254	111.017242764941	1
0	5257	111.025666905579	1
0	5278	111.6309470685	1
0	5283	111.696622094014	1
0	5297	112.079086316832	1
0	5309	112.298741245476	1
0	5319	112.503593642711	1
0	5322	112.507334326111	1
0	5324	112.522602224094	1
0	5326	112.569251511134	1
0	5337	112.764557727134	1
0	5339	112.769153443361	1
0	5346	112.85630137045	1
0	5348	112.867296155945	1
0	5352	112.90330784932	1
0	5361	113.016481493306	1
0	5381	113.463777650518	1
0	5387	113.531559442321	1
0	5401	113.880028184379	1
0	5406	113.933967073732	1
0	5415	114.083546224185	1
0	5427	114.343223652954	1
0	5435	114.467742481254	1
0	5440	114.513429618913	1
0	5447	114.647824714678	1
0	5453	114.692427471875	1
0	5455	114.75284318458	1
0	5468	114.987635422398	1
0	5478	115.090681794204	1
0	5481	115.148103491732	1
0	5488	115.262881386515	1
0	5494	115.293743745337	1
0	5496	115.296777871079	1
0	5498	115.324924575133	1
0	5518	115.771734012651	1
0	5538	116.350581816255	1
0	5541	116.356498336771	1
0	5546	116.404719844862	1
0	5552	116.49804742769	1
0	5563	116.725572993825	1
0	5565	116.745730152393	1
0	5574	116.874180249982	1
0	5578	116.91805147733	1
0	5587	117.08892432405	1
0	5608	117.659842451296	1
0	5615	117.767520595593	1
0	5621	117.860331642024	1
0	5625	117.888912514226	1
0	5638	118.150040399216	1
0	5644	118.230332099413	1
0	5648	118.257303721372	1
0	5650	118.288498965287	1
0	5654	118.346377783628	1
0	5674	118.708864358747	1
0	5689	119.134986571331	1
0	5697	119.241538332787	1
0	5714	119.708758759514	1
0	5717	119.714805605868	1
0	5719	119.782638650241	1
0	5737	120.162636577708	1
0	5760	120.845572947005	1
0	5765	120.897987667663	1
0	5776	121.118571578668	1
0	5794	121.591299054672	1
0	5801	121.73113483188	1
0	5807	121.806040897592	1
0	5813	121.901004710079	1
0	5820	122.026977854147	1
0	5826	122.109285040866	1
0	5847	122.751595558911	1
0	5867	123.358950998945	1
0	5882	123.763818176558	1
0	5895	124.00021727801	1
0	5898	124.049598752064	1
0	5909	124.202356332045	1
0	5919	124.44636373464	1
0	5922	124.455256478976	1
0	5928	124.574247786268	1
0	5933	124.631132165087	1
0	5937	124.650097180264	1
0	5960	125.223637909585	1
0	5967	125.367335337458	1
0	5977	125.530109320476	1
0	5983	125.609273204697	1
0	5989	125.697756572249	1
0	6005	126.098690697007	1
0	6008	126.100589759232	1
0	6019	126.374311152861	1
0	6025	126.432796018242	1
0	6031	126.523705882026	1
0	6035	126.582372601859	1
0	6049	126.858805212478	1
0	6054	126.896236384029	1
0	6061	127.037593066087	1
0	6067	127.122210956763	1
0	6074	127.222189485796	1
0	6078	127.267481558322	1
0	6082	127.325885675393	1
0	6084	127.338879058935	1
0	6102	127.671840859671	1
0	6107	127.692460229647	1
0	6118	127.986251292917	1
0	6128	128.123575993158	1
0	6141	128.441224101725	1
0	6144	128.455665263568	1
0	6148	128.494454316278	1
0	6169	129.041600972323	1
0	6179	129.226940328542	1
0	6182	129.273099287146	1
0	6188	129.355829582947	1
0	6195	129.480633055509	1
0	6213	129.988406312111	1
0	6223	130.095521614793	1
0	6226	130.179405822587	1
0	6233	130.248281061591	1
0	6244	130.457548765732	1
0	6249	130.535721762529	1
0	6253	130.580941512014	1
0	6258	130.628490838735	1
0	6276	131.081943634967	1
0	6281	131.147718985525	1
0	6295	131.485162410488	1
0	6300	131.510072217194	1
0	6314	131.862770961128	1
0	6326	132.096525477633	1
0	6336	132.307855965467	1
0	6346	132.514716703716	1
0	6359	132.81245958085	1
0	6362	132.887116114803	1
0	6375	133.143064555462	1
0	6390	133.567616137498	1
0	6405	133.95552539733	1
0	6411	134.053199890281	1
0	6437	134.803730413631	1
0	6447	134.992611518519	1
0	6454	135.128818967608	1
0	6462	135.276937734893	1
0	6467	135.353637065336	1
0	6474	135.432262414307	1
0	6485	135.643082288898	1
0	6502	136.174336403482	1
0	6508	136.195400715859	1
0	6521	136.572440855652	1
0	6524	136.572817742066	1
0	6540	136.940742675973	1
0	6543	136.951400501778	1
0	6564	137.568482169542	1
0	6574	137.781213097661	1
0	6577	137.781710199404	1
0	6586	137.97190290512	1
0	6597	138.107404565357	1
0	6605	138.261998128273	1
0	6625	138.817842228007	1
0	6640	139.282899594793	1
0	6645	139.311772251636	1
0	6647	139.379108458636	1
0	6654	139.435314411715	1
0	6665	139.634851121972	1
0	6671	139.775515646144	1
0	6682	139.905985928689	1
0	6692	140.13288865197	1
0	6702	140.357442667633	1
0	6708	140.438363749395	1
0	6716	140.569427398807	1
0	6722	140.642589183463	1
0	6726	140.677525805556	1
0	6739	140.976567301108	1
0	6742	140.98292777773	1
0	6747	140.989608926483	1
0	6767	141.569237843317	1
0	6780	141.87740486983	1
0	6792	142.175667255438	1
0	6800	142.28757951119	1
0	6820	142.831411314041	1
0	6830	143.029727058546	1
0	6833	143.082436200256	1
0	6846	143.326933509995	1
0	6849	143.348031853175	1
0	6851	143.368763939733	1
0	6865	143.623511881835	1
0	6883	144.09187306225	1
0	6893	144.340153093905	1
0	6906	144.685698836809	1
0	6911	144.741627108406	1
0	6918	144.835749929982	1
0	6929	145.040955910148	1
0	6932	145.084287418457	1
0	6936	145.128416725472	1
0	6940	145.141389601008	1
0	6942	145.186493751597	1
0	6949	145.260303684094	1
0	6971	145.735462693887	1
0	6981	145.985251119541	1
0	6991	146.158690992272	1
0	7006	146.494214766124	1
0	7014	146.595318075553	1
0	7017	146.674397755217	1
0	7030	146.977913146646	1
0	7036	147.027679762602	1
0	7038	147.044765061444	1
0	7044	147.124084227689	1
0	7051	147.25853892856	1
0	7076	147.925434626337	1
0	7086	148.185461983549	1
0	7092	148.205667235318	1
0	7098	148.328789791018	1
0	7100	148.364181012954	1
0	7118	148.760247216115	1
0	7131	148.99723760294	1
0	7134	149.05069882039	1
0	7136	149.080808405645	1
0	7142	149.152006660777	1
0	7149	149.214026526675	1
0	7155	149.367059590475	1
0	7173	149.692148527881	1
0	7186	150.000262330532	1
0	7189	150.071772191704	1
0	7200	150.275823190142	1
0	7210	150.457595144064	1
0	7222	150.749713210198	1
0	7232	150.919819561062	1
0	7245	151.279393237838	1
0	7250	151.341090902916	1
0	7261	151.561447293416	1
0	7267	151.618646469231	1
0	7269	151.646697710614	1
0	7275	151.715104381757	1
0	7279	151.763249078207	1
0	7297	152.180647187107	1
0	7303	152.277844179568	1
0	7307	152.281631441949	1
0	7323	152.649480407067	1
0	7326	152.668702519163	1
0	7328	152.675990710532	1
0	7334	152.759460789079	1
0	7343	152.893603542255	1
0	7345	152.943373176363	1
0	7356	153.139431924867	1
0	7367	153.304931089845	1
0	7371	153.367998658138	1
0	7380	153.523070245799	1
0	7387	153.645626877466	1
0	7395	153.782409664721	1
0	7405	153.943863856177	1
0	7411	154.015414122589	1
0	7422	154.288614574148	1
0	7432	154.431876744061	1
0	7449	154.899290652968	1
0	7462	155.207860186353	1
0	7465	155.254297916094	1
0	7478	155.589099158643	1
0	7484	155.618151428292	1
0	7490	155.770368503777	1
0	7497	155.843193640643	1
0	7510	156.171518942398	1
0	7520	156.304070652873	1
0	7523	156.311045984017	1
0	7564	157.768824421526	1
0	7570	157.802287237448	1
0	7581	158.049108732861	1
0	7593	158.324920872782	1
0	7601	158.479059096948	1
0	7606	158.576243395645	1
0	7613	158.616121068601	1
0	7619	158.692636428627	1
0	7621	158.711201929805	1
0	7630	158.880932467161	1
0	7634	158.944534822398	1
0	7641	159.037711812973	1
0	7647	159.14060975013	1
0	7668	159.621156947608	1
0	7671	159.635048089161	1
0	7677	159.732916768379	1
0	7688	159.928528480044	1
0	7703	160.290410383185	1
0	7706	160.300823759435	1
0	7713	160.48496571757	1
0	7719	160.5574107243	1
0	7738	161.043537096991	1
0	7741	161.088576990268	1
0	7750	161.220927457191	1
0	7776	162.004974493428	1
0	7796	162.641454665211	1
0	7801	162.705637193757	1
0	7810	162.877576585011	1
0	7815	162.961179260967	1
0	7817	162.966806549615	1
0	7828	163.171496935064	1
0	7842	163.440044968941	1
0	7852	163.660223807735	1
0	7867	164.055457592942	1
0	7882	164.392581709354	1
0	7885	164.413331852186	1
0	7891	164.50150155143	1
0	7912	165.163278256496	1
0	7957	166.713518735562	1
0	7965	166.879278229562	1
0	7975	167.00311180439	1
0	7985	167.273067193706	1
0	7995	167.462066436611	1
0	8000	167.512787328058	1
0	8024	168.232744047337	1
0	8044	168.79940721002	1
0	8047	168.845174713735	1
0	8058	169.051362709567	1
0	8061	169.08729153876	1
0	8070	169.244045414805	1
0	8074	169.279732686217	1
0	8097	169.930582468087	1
0	8125	170.789985346624	1
0	8132	170.952808331713	1
0	8147	171.354133240183	1
0	8157	171.505848975057	1
0	8167	171.697450387389	1
0	8170	171.706610376848	1
0	8189	172.257071078684	1
0	8199	172.415174122892	1
0	8202	172.44835373392	1
0	8215	172.721151445969	1
0	8221	172.816025431633	1
0	8227	172.907926254817	1
0	8236	173.055872594691	1
0	8246	173.283338655761	1
0	8251	173.307584383894	1
0	8258	173.473656451439	1
0	8274	173.864207426578	1
0	8279	173.910839895661	1
0	8281	173.950455160372	1
0	8292	174.108745655532	1
0	8299	174.210958966092	1
0	8305	174.340207389088	1
0	8312	174.427720649399	1
0	8318	174.510133905617	1
0	8320	174.55282259065	1
0	8333	174.770140682932	1
0	8339	174.796171057775	1
0	8341	174.808791771027	1
0	8359	175.231572866356	1
0	8364	175.324861715494	1
0	8378	175.656938146378	1
0	8385	175.770809028844	1
0	8391	175.826363596375	1
0	8414	176.555279628444	1
0	8424	176.704060785278	1
0	8434	176.943658504864	1
0	8437	176.956352822655	1
0	8448	177.152939710716	1
0	8461	177.476866656755	1
0	8466	177.510774066682	1
0	8468	177.544833308532	1
0	8475	177.659051937992	1
0	8498	178.222275838935	1
0	8503	178.315075410377	1
0	8512	178.465001360339	1
0	8532	179.02901308432	1
0	8542	179.213547692593	1
0	8549	179.334142318528	1
0	8559	179.54733280434	1
0	8574	179.933675072657	1
0	8582	180.056010844366	1
0	8592	180.268049907277	1
0	8604	180.502626974672	1
0	8619	180.925494790238	1
0	8627	181.033109407986	1
0	8630	181.033777611556	1
0	8643	181.379874629042	1
0	8663	181.897364149931	1
0	8683	182.514007120656	1
0	8703	183.118396728499	1
0	8709	183.207662374478	1
0	8713	183.241330844156	1
0	8715	183.248889452572	1
0	8717	183.262483276598	1
0	8728	183.470163951096	1
0	8734	183.54649902582	1
0	8741	183.640391032252	1
0	8750	183.816554249629	1
0	8754	183.837756725218	1
0	8760	183.986279405386	1
0	8767	184.059194434713	1
0	8773	184.173423754494	1
0	8780	184.241749276332	1
0	8800	184.729377906687	1
0	8813	185.059395216011	1
0	8823	185.228178372798	1
0	8826	185.283985424775	1
0	8847	185.828020353006	1
0	8850	185.838500905147	1
0	8859	186.010178090558	1
0	8865	186.105370567309	1
0	8869	186.146328224499	1
0	8888	186.676329327515	1
0	8913	187.480682545149	1
0	8916	187.485529750995	1
0	8954	188.786423246885	1
0	8957	188.789034356694	1
0	8966	188.907321539092	1
0	8968	188.93402488179	1
0	8984	189.221483946105	1
0	8989	189.290874881236	1
0	9000	189.493304971086	1
0	9010	189.74551835015	1
0	9013	189.786491664033	1
0	9022	189.901929284717	1
0	9031	190.075049741009	1
0	9036	190.103709617296	1
0	9047	190.316112813481	1
0	9050	190.321897380484	1
0	9059	190.502049948631	1
0	9068	190.64453001605	1
0	9078	190.800478822865	1
0	9081	190.858224375062	1
0	9092	191.037462725026	1
0	9107	191.391418297428	1
0	9117	191.638298634946	1
0	9122	191.714638757333	1
0	9136	192.009426172948	1
0	9156	192.668065398178	1
0	9159	192.686718895186	1
0	9163	192.691790376124	1
0	9181	193.181302128876	1
0	9187	193.241933352898	1
0	9193	193.36136443694	1
0	9204	193.560668983657	1
0	9217	193.799223547526	1
0	9224	193.915545937696	1
0	9230	194.013632613834	1
0	9238	194.138072480532	1
0	9241	194.148553821056	1
0	9248	194.288798541316	1
0	9261	194.506713940691	1
0	9274	194.833376719767	1
0	9279	194.924410936842	1
0	9283	194.954403265803	1
0	9292	195.11534417499	1
0	9299	195.196269191015	1
0	9303	195.258279224205	1
0	9316	195.504123733913	1
0	9319	195.549723820336	1
0	9326	195.633229722432	1
0	9330	195.703483341086	1
0	9351	196.21643631307	1
0	9363	196.5853008768	1
0	9383	197.098707231231	1
0	9401	197.614151600292	1
0	9411	197.832258050524	1
0	9436	198.600977545639	1
0	9448	198.909148110478	1
0	9456	199.016148192726	1
0	9463	199.116846043677	1
0	9476	199.413571538138	1
0	9486	199.63472138328	1
0	9489	199.671518720977	1
0	9491	199.677397269544	1
0	9506	199.950112850778	1
1	2	0.114538397925	1
1	5	0.15547197478	1
1	7	0.160725622149	2
1	24	0.69702927424	1
1	34	0.85658085902	1
1	51	1.446849733555	1
1	57	1.56114979718	1
1	62	1.693770058208	1
1	70	1.802842361652	1
1	75	1.880132695456	1
1	82	1.960328180121	1
1	84	1.993876258359	2
1	88	2.039670517305	2
1	101	2.27970830462	1
1	112	2.472841777648	1
1	115	2.498397212233	1
1	120	2.569633561714	2
1	128	2.702419565487	1
1	133	2.764494358611	2
1	144	2.964830169755	1
1	155	3.158944621383	1
1	167	3.499943640207	1
1	177	3.650583421909	1
1	187	3.880370524256	1
1	190	3.90927857908	1
1	199	4.047333308752	1
1	208	4.191469101016	1
1	218	4.368232347101	1
1	221	4.409008370493	1
1	234	4.663426033318	1
1	247	4.971161491871	1
1	250	5.03097699788	1
1	266	5.415772884114	1
1	276	5.573795849995	1
1	283	5.710133206656	1
1	291	5.814749231701	1
1	306	6.189640309045	1
1	309	6.228596388112	1
1	311	6.245195653213	2
1	336	6.944071509278	1
1	346	7.084810467119	1
1	352	7.155295367916	1
1	354	7.168798411447	2
1	358	7.236697040012	2
1	367	7.348463075238	2
1	369	7.373166461457	3
1	373	7.393469140195	3
1	375	7.433581000757	4
1	379	7.460781597482	5
1	388	7.597139885006	4
1	397	7.778777270334	4
1	405	7.945611213717	3
1	412	7.996850996407	3
1	414	8.047014378372	4
1	418	8.06963595367	5
1	434	8.36140137449	3
1	438	8.411172176191	3
1	447	8.58339450889	3
1	453	8.669497648598	3
1	457	8.706239748247	3
1	464	8.83238222931	3
1	470	8.923988187905	3
1	475	8.969053180419	4
1	483	9.095528925266	3
1	494	9.30008526162	2
1	505	9.512502484105	1
1	512	9.644471981036	1
1	528	9.959566005198	1
1	535	10.100301174566	1
1	545	10.317872321556	1
1	551	10.415715368928	1
1	562	10.605596832298	1
1	574	10.921220975991	1
1	604	11.860064909484	1
1	612	12.033567014881	1
1	617	12.059016632358	1
1	619	12.094435346442	2
1	621	12.126601718384	3
1	637	12.367898471559	1
1	653	12.750387208039	1
1	673	13.418319719661	1
1	683	13.560796272331	1
1	690	13.699429054061	1
1	696	13.748422527581	1
1	712	14.189006788557	1
1	742	15.189132650318	1
1	747	15.272725324637	1
1	754	15.348479487453	1
1	762	15.515949580353	1
1	768	15.575828505441	1
1	774	15.687393072177	1
1	788	16.018673071187	1
1	795	16.133478438999	1
1	801	16.22076911568	1
1	814	16.520490860361	1
1	822	16.64665401336	1
1	832	16.800057617898	1
1	837	16.864146404648	1
1	858	17.478851537593	1
1	871	17.798947557242	1
1	881	17.956091368242	1
1	893	18.292641980079	1
1	896	18.309774238733	1
1	917	18.901424635715	1
1	923	18.992673941087	1
1	936	19.338864736977	1
1	951	19.719425963769	1
1	961	19.86420461942	1
1	969	19.968472441597	1
1	972	20.018420814404	1
1	974	20.023936654421	2
1	989	20.298518651389	1
1	995	20.355303742053	1
1	1001	20.46826782324	1
1	1003	20.48216878838	2
1	1021	20.920563211166	1
1	1051	21.93888924218	1
1	1071	22.505589148907	1
1	1094	23.210807401393	1
1	1104	23.350645381586	1
1	1116	23.672791481638	1
1	1126	23.914952054823	1
1	1136	24.099120830404	1
1	1146	24.344324981885	1
1	1159	24.633924778554	1
1	1169	24.765103441377	1
1	1172	24.80218280446	1
1	1195	25.447532803154	1
1	1198	25.516884297978	1
1	1205	25.627917323808	1
1	1216	25.776412910837	1
1	1221	25.854392556584	1
1	1225	25.942597837071	1
1	1239	26.229635942306	1
1	1242	26.23898697221	1
1	1263	26.778493792566	1
1	1288	27.595215574836	1
1	1298	27.843631689264	1
1	1308	27.960079873881	1
1	1315	28.105806047531	1