version 3
run FeedbackVersion-1-20240511-20:48:08-11935
attr configname FeedbackVersion
attr datetime 20240511-20:48:08
attr datetimef 20240511-204808
attr experiment FeedbackVersion
attr inifile omnetpp.ini
attr iterationvars $genInterval=0.15
attr iterationvarsd genInterval=0.15
attr iterationvarsf genInterval=0.15-
attr measurement $genInterval=0.15
attr network NetworkFV
attr processid 11935
attr repetition 0
attr replication #0
attr resultdir results
attr runnumber 1
attr seedset 1
itervar genInterval 0.15
config network NetworkFV
config sim-time-limit 200s
config NetworkFV.nodeTx.gen.generationInterval exponential(0.15)
config NetworkFV.nodeTx.gen.packetByteSize 12500
config NetworkFV.queueOne.bufferSize 200
config NetworkFV.nodeRx.queue.bufferSize 200
config NetworkFV.nodeTx.queue.bufferSize 2000000
config NetworkFV.queueZero.bufferSize 200

vector 0 NetworkFV.nodeRx.queue PacketsLost ETV
vector 1 NetworkFV.nodeRx.queue PacketsAsked ETV
vector 2 NetworkFV.queueOne bufferSize ETV
vector 3 NetworkFV.nodeTx.gen packetGen ETV
vector 4 NetworkFV.nodeTx.queue BufferSize ETV
vector 5 NetworkFV.nodeTx.queue PacketsSent ETV
vector 6 NetworkFV.queueZero bufferSize ETV
vector 7 NetworkFV.nodeRx.queue BufferSize ETV
vector 8 NetworkFV.nodeRx.sink Delay ETV
vector 9 NetworkFV.nodeRx.sink packetUsed ETV
0	1	0	1
0	12	0.2	1
0	19	0.7002	1
0	23	1.0004	1
0	47	1.6008	1
0	71	2.5014	1
0	84	2.8016	1
0	762	15.1098	1
0	5803	105.7702	1
0	10171	185.9236	1
0	10186	186.2238	1
1	1	0	2
1	31	1.262049603124	2
1	62	2.05764006454	4
1	123	3.57459256505	6
1	204	4.950500155444	10
1	319	7.051498463644	15
1	486	10.212949601446	22
1	741	14.799800145405	34
1	1138	21.801588068534	51
1	1711	32.251291172173	76
1	2581	47.734485565287	114
1	3853	70.716081648215	172
1	5791	105.295391595052	199
1	7916	145.661220935114	199
1	10162	185.588706208674	199
2	2	0	1
2	33	1.262049603124	1
2	64	2.05764006454	1
2	125	3.57459256505	1
2	206	4.950500155444	1
2	321	7.051498463644	1
2	488	10.212949601446	1
2	743	14.799800145405	1
2	1140	21.801588068534	1
2	1713	32.251291172173	1
2	2583	47.734485565287	1
2	3855	70.716081648215	1
2	5793	105.295391595052	1
2	7918	145.661220935114	1
2	10164	185.588706208674	1
3	6	0.080940873977	1
3	20	0.961849603124	1
3	27	1.152968388848	1
3	40	1.55744006454	1
3	43	1.557457222683	1
3	45	1.578023509772	1
3	48	1.63202542195	1
3	72	2.67439256505	1
3	75	2.698199004634	1
3	77	2.738594598285	1
3	79	2.75312717916	1
3	85	2.828898630761	1
3	87	2.859815825856	1
3	91	2.933447399524	1
3	98	2.997043871345	1
3	105	3.163227873222	1
3	111	3.239045753093	1
3	129	3.650300155444	1
3	138	3.766394120985	1
3	148	4.047317671016	1
3	154	4.12881857781	1
3	161	4.185191456709	1
3	171	4.3585734133	1
3	176	4.470096866902	1
3	179	4.504405527891	1
3	185	4.592306047568	1
3	197	4.90801064201	1
3	200	4.947133019501	1
3	210	4.951298463644	1
3	218	5.065967201512	1
3	223	5.232479249295	1
3	244	5.600424221328	1
3	251	5.681437878796	1
3	257	5.773091360447	1
3	265	5.895792457154	1
3	271	5.980294241855	1
3	274	6.002985179506	1
3	289	6.422831971199	1
3	295	6.455947953732	1
3	303	6.681972866081	1
3	312	6.92394801977	1
3	325	7.112749601446	1
3	351	7.630283664539	1
3	362	7.873781868416	1
3	369	7.930187661778	1
3	371	7.944796647647	1
3	382	8.121602173029	1
3	390	8.231121328799	1
3	406	8.544713867243	1
3	419	8.845108438804	1
3	430	9.182616819186	1
3	442	9.447659501975	1
3	445	9.460991431264	1
3	456	9.726435392857	1
3	459	9.73241107473	1
3	462	9.780245707002	1
3	465	9.808164500346	1
3	471	9.81732509307	1
3	482	10.133060540765	1
3	492	10.299600145405	1
3	498	10.315128948228	1
3	503	10.44999441044	1
3	507	10.531990214253	1
3	515	10.699043358418	1
3	540	11.174162196786	1
3	548	11.253762343695	1
3	554	11.368029347078	1
3	561	11.401042373785	1
3	568	11.577630862423	1
3	575	11.628926184894	1
3	577	11.685789606055	1
3	583	11.708783286709	1
3	591	11.882777116957	1
3	607	12.11217334076	1
3	618	12.38210490011	1
3	626	12.461896673278	1
3	628	12.464665309978	1
3	630	12.469880629987	1
3	639	12.677911396591	1
3	648	12.82464827883	1
3	668	13.499244879083	1
3	677	13.661347057585	1
3	685	13.868194621756	1
3	691	13.921373773362	1
3	694	13.970741910321	1
3	700	14.059366920727	1
3	709	14.292950201471	1
3	714	14.330628529801	1
3	717	14.346971241765	1
3	720	14.358400438224	1
3	726	14.447502592372	1
3	732	14.542518976055	1
3	750	14.901388068534	1
3	753	14.916555541838	1
3	755	14.968694589565	1
3	772	15.319224759553	1
3	774	15.37012904274	1
3	776	15.389217222538	1
3	784	15.410111458433	1
3	790	15.521714190317	1
3	792	15.524647733575	1
3	794	15.537746848483	1
3	805	15.708117136652	1
3	823	16.08120394586	1
3	829	16.11687174989	1
3	846	16.478812758608	1
3	852	16.525107079859	1
3	854	16.57837923452	1
3	862	16.679844326801	1
3	873	16.811545204347	1
3	875	16.819771068406	1
3	882	16.944947278337	1
3	889	17.072986084785	1
3	901	17.215749803568	1
3	903	17.239551440322	1
3	928	17.709923603257	1
3	936	17.843409464357	1
3	938	17.888773801828	1
3	949	18.069248951888	1
3	955	18.108651606425	1
3	958	18.124845260978	1
3	965	18.23920328892	1
3	971	18.319382943928	1
3	986	18.768557300465	1
3	994	18.946379111277	1
3	1001	19.048283384831	1
3	1006	19.128494602514	1
3	1012	19.245169866839	1
3	1015	19.252856512571	1
3	1024	19.470391940227	1
3	1029	19.58553906438	1
3	1032	19.592499967347	1
3	1041	19.756004938575	1
3	1044	19.778622462892	1
3	1050	19.887129128385	1
3	1061	20.122953033705	1
3	1076	20.556915195544	1
3	1079	20.561453362301	1
3	1085	20.693937994019	1
3	1099	21.015936143052	1
3	1110	21.36651559407	1
3	1117	21.483252151944	1
3	1122	21.505435771985	1
3	1125	21.594561471918	1
3	1131	21.617058739278	1
3	1146	21.951091172173	1
3	1155	22.198155356211	1
3	1162	22.269277429323	1
3	1165	22.345321602866	1
3	1176	22.461288112349	1
3	1178	22.488400286612	1
3	1185	22.646862088648	1
3	1206	23.040505146168	1
3	1213	23.107744055485	1
3	1219	23.171846805968	1
3	1227	23.298794553751	1
3	1238	23.507226762595	1
3	1250	23.659575680502	1
3	1262	23.853768654627	1
3	1264	23.874023941189	1
3	1280	24.196254081934	1
3	1291	24.372030556822	1
3	1299	24.518624765321	1
3	1310	24.675136627266	1
3	1322	24.883647312272	1
3	1324	24.949176536445	1
3	1330	25.013539959509	1
3	1342	25.229641807331	1
3	1349	25.276833603439	1
3	1352	25.342965984626	1
3	1373	25.682306618882	1
3	1384	25.891933183016	1
3	1391	25.9757495416	1
3	1408	26.295475806364	1
3	1433	26.797652947003	1
3	1435	26.799413619061	1
3	1447	26.962761112788	1
3	1454	27.066166980687	1
3	1460	27.211975445689	1
3	1463	27.223473914602	1
3	1466	27.241756009924	1
3	1478	27.473691307507	1
3	1492	27.921526700897	1
3	1495	27.931458461236	1
3	1501	28.02111004958	1
3	1507	28.086957988774	1
3	1512	28.216509033515	1
3	1527	28.643184778701	1
3	1533	28.721856742528	1
3	1538	28.793514529119	1
3	1541	28.834094419635	1
3	1550	29.049998108449	1
3	1564	29.40054278572	1
3	1573	29.622038019202	1
3	1579	29.749922595258	1
3	1584	29.803715656351	1
3	1587	29.804146824158	1
3	1596	30.026395340108	1
3	1605	30.170410150104	1
3	1608	30.195305910131	1
3	1614	30.254628278259	1
3	1619	30.384266273673	1
3	1626	30.496583685202	1
3	1629	30.497941007119	1
3	1640	30.823598360514	1
3	1648	31.008785082628	1
3	1655	31.075089609166	1
3	1660	31.170502819687	1
3	1672	31.529272892262	1
3	1681	31.746238520775	1
3	1689	31.892708385594	1
3	1695	31.987204016373	1
3	1698	31.989596176266	1
3	1701	32.036597664545	1
3	1719	32.434285565287	1
3	1728	32.701580037329	1
3	1740	32.877692106777	1
3	1747	32.997910558879	1
3	1792	33.886361018709	1
3	1794	33.897259767524	1
3	1796	33.925632785612	1
3	1803	34.021566650593	1
3	1810	34.043691335636	1
3	1821	34.247356017063	1
3	1843	34.651912463535	1
3	1845	34.683883292631	1
3	1856	34.86289667218	1
3	1864	34.956527040823	1
3	1866	34.966768894811	1
3	1868	35.006044302218	1
3	1879	35.217302631859	1
3	1886	35.323769603986	1
3	1898	35.534057692479	1
3	1905	35.569144448332	1
3	1926	35.95378474121	1
3	1928	35.96136891964	1
3	1940	36.147840820997	1
3	1946	36.257580954313	1
3	1948	36.277485737354	1
3	1950	36.305847491509	1
3	1952	36.308859551594	1
3	1959	36.384564537309	1
3	1961	36.388548630031	1
3	1963	36.405585309283	1
3	1965	36.409892535622	1
3	1972	36.51683695194	1
3	1979	36.559233384491	1
3	1981	36.575393756728	1
3	1997	36.870340635127	1
3	1999	36.921443545336	1
3	2011	37.037542173159	1
3	2013	37.077089837339	1
3	2020	37.197809611397	1
3	2046	37.712563940468	1
3	2063	37.989367309323	1
3	2069	38.038293086513	1
3	2071	38.058181145243	1
3	2073	38.09809321228	1
3	2080	38.147198852132	1
3	2082	38.161602229807	1
3	2089	38.293798429158	1
3	2096	38.420417194243	1
3	2127	38.944393104545	1
3	2129	39.025566896992	1
3	2141	39.149065602897	1
3	2143	39.217858284658	1
3	2145	39.220681786081	1
3	2161	39.472174752009	1
3	2172	39.714065695789	1
3	2180	39.765388546833	1
3	2182	39.805173787279	1
3	2193	39.994727751116	1
3	2205	40.2415692918	1
3	2212	40.383948761005	1
3	2217	40.457568058859	1
3	2223	40.541074888687	1
3	2234	40.839835487352	1
3	2243	41.048907653876	1
3	2252	41.255134658067	1
3	2258	41.338877975127	1
3	2263	41.460748765831	1
3	2270	41.544641524721	1
3	2273	41.566647954568	1
3	2276	41.634038040751	1
3	2281	41.643306218089	1
3	2284	41.668274361757	1
3	2287	41.687678539805	1
3	2301	42.102825465557	1
3	2304	42.109661686675	1
3	2319	42.481936166574	1
3	2322	42.498994493692	1
3	2330	42.727454948112	1
3	2337	42.76582613978	1
3	2342	42.909521597096	1
3	2351	43.096756799358	1
3	2354	43.102256309208	1
3	2360	43.225306938698	1
3	2369	43.384644843409	1
3	2372	43.386540164574	1
3	2375	43.407389758002	1
3	2378	43.41859413316	1
3	2383	43.470891533879	1
3	2401	43.983840023689	1
3	2406	44.050974168905	1
3	2412	44.176908509443	1
3	2415	44.225072654444	1
3	2421	44.259162944295	1
3	2424	44.270690079095	1
3	2427	44.31430826201	1
3	2433	44.339063721761	1
3	2442	44.543348394884	1
3	2445	44.569790704902	1
3	2448	44.602407703853	1
3	2462	45.021232646626	1
3	2471	45.151843850647	1
3	2474	45.221419387919	1
3	2494	45.747503052901	1
3	2497	45.755199902529	1
3	2508	46.036629756338	1
3	2516	46.23924310207	1
3	2519	46.280378585245	1
3	2523	46.333597287993	1
3	2531	46.435711828143	1
3	2534	46.470002743011	1
3	2540	46.615122865863	1
3	2560	47.215715939953	1
3	2571	47.480612942524	1
3	2587	47.815881648215	1
3	2593	47.841462782551	1
3	2600	48.055123786591	1
3	2602	48.057936422043	1
3	2611	48.215890753438	1
3	2616	48.226779929151	1
3	2618	48.232853783656	1
3	2625	48.332784331524	1
3	2637	48.584985947228	1
3	2648	48.724822083881	1
3	2660	48.940506431519	1
3	2667	49.066701814926	1
3	2674	49.157825001759	1
3	2676	49.215093677015	1
3	2687	49.3289311086	1
3	2719	50.000265125887	1
3	2725	50.017633340672	1
3	2732	50.147667461895	1
3	2734	50.171346826006	1
3	2741	50.243086355476	1
3	2748	50.349718501902	1
3	2754	50.469811062624	1
3	2756	50.506246104734	1
3	2768	50.711416717802	1
3	2789	51.08375191619	1
3	2801	51.249703029634	1
3	2808	51.34273006621	1
3	2810	51.388896367402	1
3	2812	51.41017709718	1
3	2818	51.420472706921	1
3	2830	51.637214873955	1
3	2832	51.706540242199	1
3	2840	51.742418548346	1
3	2846	51.891441909489	1
3	2848	51.903015934961	1
3	2855	51.938407328926	1
3	2857	51.953449883337	1
3	2869	52.163056551751	1
3	2871	52.189603919059	1
3	2873	52.199931928773	1
3	2879	52.266048451048	1
3	2881	52.311278100607	1
3	2888	52.32630217808	1
3	2900	52.571326859064	1
3	2902	52.594520504052	1
3	2908	52.626765988726	1
3	2930	53.027841412921	1
3	2937	53.18086463546	1
3	2944	53.309774732382	1
3	2955	53.421336726032	1
3	2967	53.695891699467	1
3	2988	54.084048200833	1
3	3000	54.230490985577	1
3	3002	54.276326507644	1
3	3009	54.335175712021	1
3	3011	54.345411289134	1
3	3023	54.540710690432	1
3	3035	54.739951852094	1
3	3041	54.850904870779	1
3	3053	55.072783488645	1
3	3064	55.273016183196	1
3	3085	55.630611257823	1
3	3088	55.657732763083	1
3	3109	56.060908295638	1
3	3120	56.235169050252	1
3	3123	56.237276521518	1
3	3130	56.320757446718	1
3	3132	56.360814334492	1
3	3144	56.556415019659	1
3	3150	56.700286281955	1
3	3162	56.912080664383	1
3	3188	57.358518122586	1
3	3194	57.434545970991	1
3	3216	57.88443510137	1
3	3237	58.273375926994	1
3	3245	58.395386369154	1
3	3251	58.429517534685	1
3	3268	58.800357012086	1
3	3270	58.801562247735	1
3	3282	58.955463944683	1
3	3301	59.346730063464	1
3	3306	59.420876409617	1
3	3309	59.473206140776	1
3	3316	59.57303322008	1
3	3319	59.600432749027	1
3	3327	59.739501564973	1
3	3330	59.743161088298	1
3	3336	59.86278662481	1
3	3342	59.953009063373	1
3	3356	60.343930800168	1
3	3365	60.591734663769	1
3	3379	60.968237755274	1
3	3384	61.037157107844	1
3	3388	61.112505294646	1
3	3396	61.253441880776	1
3	3414	61.749035607643	1
3	3417	61.754356016351	1
3	3420	61.783022041358	1
3	3425	61.848699500168	1
3	3428	61.86895730019	1
3	3431	61.8812234261	1
3	3434	61.902991018913	1
3	3443	62.080217663608	1
3	3449	62.185898082908	1
3	3452	62.18781720746	1
3	3455	62.191081184315	1
3	3461	62.283382847487	1
3	3478	62.726773675788	1
3	3493	63.214627931142	1
3	3504	63.477897634999	1
3	3510	63.538909198404	1
3	3513	63.541179134426	1
3	3518	63.637001686049	1
3	3521	63.666075129676	1
3	3524	63.682780450782	1
3	3531	63.743314792588	1
3	3536	63.848212492673	1
3	3539	63.869273770973	1
3	3551	64.194599771896	1
3	3562	64.443307904585	1
3	3568	64.557964860838	1
3	3573	64.621372571394	1
3	3577	64.670956156894	1
3	3591	65.093236722082	1
3	3597	65.158915912947	1
3	3603	65.289762078276	1
3	3617	65.62967148562	1
3	3629	65.946258062734	1
3	3632	65.987717786398	1
3	3643	66.267110542098	1
3	3646	66.270736633453	1
3	3660	66.624439114079	1
3	3678	67.130447871308	1
3	3683	67.222842535717	1
3	3686	67.307151925401	1
3	3695	67.425715268193	1
3	3698	67.489478644238	1
3	3710	67.729850661546	1
3	3715	67.858932111761	1
3	3718	67.909403906657	1
3	3724	67.929695471117	1
3	3730	68.030771738027	1
3	3744	68.480261556813	1
3	3753	68.617371902711	1
3	3756	68.673818479122	1
3	3759	68.676166755994	1
3	3776	69.134269908935	1
3	3782	69.269288750718	1
3	3785	69.306249279164	1
3	3791	69.391537711795	1
3	3796	69.434430287643	1
3	3805	69.681470513793	1
3	3817	69.980517128404	1
3	3822	70.037321211297	1
3	3826	70.07755575038	1
3	3838	70.412638776482	1
3	3849	70.665829844041	1
3	3859	70.795191595052	1
3	3867	70.912947165639	1
3	3869	70.943450180232	1
3	3872	70.975291900025	1
3	3885	71.207917188811	1
3	3893	71.341233092364	1
3	3899	71.483257638215	1
3	3901	71.49065773029	1
3	3908	71.498970251822	1
3	3910	71.501370297521	1
3	3913	71.583129472003	1
3	3915	71.590777843901	1
3	3926	71.761257137698	1
3	3932	71.837734875288	1
3	3954	72.213995152822	1
3	3961	72.343018566333	1
3	3963	72.343078881921	1
3	3979	72.646274538387	1
3	4010	73.210551064757	1
3	4022	73.441931714958	1
3	4029	73.512812015689	1
3	4031	73.556907837186	1
3	4062	74.103113025442	1
3	4064	74.11598836616	1
3	4071	74.255211022147	1
3	4073	74.280963849568	1
3	4089	74.545742414216	1
3	4092	74.58100450669	1
3	4103	74.709252636995	1
3	4105	74.790286372131	1
3	4117	74.938646315693	1
3	4123	75.002731624976	1
3	4125	75.053173481476	1
3	4137	75.233711428464	1
3	4144	75.366297062423	1
3	4156	75.545652871372	1
3	4168	75.753610084555	1
3	4170	75.765259548323	1
3	4186	76.058380667456	1
3	4188	76.063953369356	1
3	4199	76.274978254074	1
3	4216	76.508647342957	1
3	4223	76.688275019805	1
3	4244	77.034457707064	1
3	4261	77.334252487004	1
3	4263	77.33495362	1
3	4265	77.393395558242	1
3	4271	77.439415772282	1
3	4283	77.606074136528	1
3	4290	77.70056543569	1
3	4292	77.790479521248	1
3	4299	77.857379513307	1
3	4306	77.929594478101	1
3	4308	77.970802964913	1
3	4314	78.050154294377	1
3	4316	78.053670496026	1
3	4323	78.13066469281	1
3	4330	78.244451401869	1
3	4337	78.30172481156	1
3	4339	78.32264769749	1
3	4346	78.46854486683	1
3	4353	78.592190148376	1
3	4359	78.676573073057	1
3	4366	78.704130996854	1
3	4392	79.250442293452	1
3	4399	79.332429581923	1
3	4411	79.502317416767	1
3	4418	79.675446271145	1
3	4425	79.708649897278	1
3	4427	79.756660094295	1
3	4433	79.840112279895	1
3	4435	79.841619788965	1
3	4442	79.904709548998	1
3	4444	79.9419530432	1
3	4456	80.181608207307	1
3	4458	80.186479901988	1
3	4479	80.504517291125	1
3	4501	80.914227853634	1
3	4517	81.265492167788	1
3	4529	81.494044529879	1
3	4540	81.657070722477	1
3	4548	81.766416097899	1
3	4554	81.813665509943	1
3	4556	81.81615547719	1
3	4558	81.859781877118	1
3	4565	81.91302624392	1
3	4581	82.202573937115	1
3	4588	82.319288071498	1
3	4595	82.431813858065	1
3	4612	82.726606091308	1
3	4624	82.969651411569	1
3	4630	83.000357525207	1
3	4637	83.127823646048	1
3	4639	83.140910213388	1
3	4651	83.339066301719	1
3	4653	83.345858637165	1
3	4659	83.45564546499	1
3	4666	83.543641718578	1
3	4678	83.764670690653	1
3	4680	83.767596860251	1
3	4687	83.893794525386	1
3	4694	83.904202190058	1
3	4700	83.998224632631	1
3	4712	84.248739437816	1
3	4719	84.311679118153	1
3	4726	84.463389136023	1
3	4728	84.473986202202	1
3	4744	84.696308189703	1
3	4747	84.767512183376	1
3	4758	84.95097642572	1
3	4760	84.963422714589	1
3	4766	85.004235547555	1
3	4797	85.613811779344	1
3	4799	85.620626975237	1
3	4801	85.650689941253	1
3	4809	85.700219284839	1
3	4820	85.950803579775	1
3	4836	86.25127528382	1
3	4854	86.563145503805	1
3	4856	86.574535715444	1
3	4867	86.749447337701	1
3	4879	86.91141528335	1
3	4885	87.037834529365	1
3	4887	87.068958019667	1
3	4890	87.095284598787	1
3	4901	87.206096234946	1
3	4908	87.300447552076	1
3	4924	87.651770081767	1
3	4931	87.715277494195	1
3	4938	87.811974692277	1
3	4940	87.850216262875	1
3	4955	88.131835713848	1
3	4960	88.266497232856	1
3	4972	88.540244490793	1
3	4977	88.596398299412	1
3	4980	88.618896212619	1
3	4993	88.990983607583	1
3	5001	89.107562272469	1
3	5012	89.468147884014	1
3	5019	89.56255697405	1
3	5024	89.607139743542	1
3	5027	89.644155873224	1
3	5030	89.661786240508	1
3	5036	89.748981051004	1
3	5039	89.78113886588	1
3	5045	89.879308102561	1
3	5051	89.983155482648	1
3	5056	90.043964217987	1
3	5065	90.239580528792	1
3	5068	90.240923424115	1
3	5071	90.275939337292	1
3	5077	90.38155961576	1
3	5082	90.42431915315	1
3	5089	90.592055993788	1
3	5100	90.878305256842	1
3	5103	90.886863735461	1
3	5109	90.96750302944	1
3	5112	90.993224449766	1
3	5121	91.13705920277	1
3	5126	91.27642883861	1
3	5132	91.316349441523	1
3	5136	91.374027688954	1
3	5139	91.390160001643	1
3	5153	91.72195806278	1
3	5158	91.830764310561	1
3	5167	92.065128511685	1
3	5173	92.162395024965	1
3	5178	92.199184078715	1
3	5181	92.224034128168	1
3	5184	92.257544852596	1
3	5193	92.403397140994	1
3	5200	92.574518706777	1
3	5205	92.692311406174	1
3	5211	92.71779036542	1
3	5217	92.877047396483	1
3	5223	92.984160428446	1
3	5228	93.007578791144	1
3	5248	93.671816743227	1
3	5257	93.880680401809	1
3	5263	93.904124431585	1
3	5266	93.94178821929	1
3	5269	93.949214034169	1
3	5274	94.059106990893	1
3	5289	94.403097284497	1
3	5297	94.633871547076	1
3	5306	94.822335026771	1
3	5309	94.825722555569	1
3	5312	94.881453393882	1
3	5318	94.940268173937	1
3	5324	95.015137386926	1
3	5336	95.324580965806	1
3	5339	95.337216043617	1
3	5350	95.616584807686	1
3	5353	95.681692579069	1
3	5361	95.797664255125	1
3	5364	95.797816324166	1
3	5376	96.099986096665	1
3	5382	96.246962749422	1
3	5399	96.695741688412	1
3	5402	96.72926411832	1
3	5411	96.991920382672	1
3	5420	97.139089413136	1
3	5431	97.427830366214	1
3	5434	97.48600033778	1
3	5440	97.501595128344	1
3	5443	97.508866281516	1
3	5449	97.666899644248	1
3	5457	97.859657959345	1
3	5466	98.042022763217	1
3	5474	98.255623444093	1
3	5483	98.39695737545	1
3	5486	98.475165632769	1
3	5498	98.716293043728	1
3	5507	98.899072291202	1
3	5510	98.90434973319	1
3	5515	99.036401139314	1
3	5524	99.257008308632	1
3	5542	99.780830180375	1
3	5550	99.978193598822	1
3	5555	100.032528242984	1
3	5559	100.07763288272	1
3	5565	100.134111051908	1
3	5568	100.178683927935	1
3	5573	100.217200925467	1
3	5580	100.367275461677	1
3	5588	100.534639790118	1
3	5593	100.598175933179	1
3	5602	100.824562052076	1
3	5611	101.063440821477	1
3	5617	101.171260332617	1
3	5622	101.259888519634	1
3	5631	101.403168567554	1
3	5640	101.63217414193	1
3	5643	101.639184616891	1
3	5666	102.337209236215	1
3	5671	102.4258247694	1
3	5675	102.479379235599	1
3	5694	102.99574146715	1
3	5697	103.018890092121	1
3	5701	103.08573013917	1
3	5715	103.433093510187	1
3	5721	103.554219773562	1
3	5727	103.671208448317	1
3	5733	103.750698096403	1
3	5753	104.302480237127	1
3	5769	104.809895018649	1
3	5776	104.9617345044	1
3	5781	104.995780481347	1
3	5800	105.761020935114	1
3	5834	106.501626586269	1
3	5840	106.620098694205	1
3	5852	106.781567601486	1
3	5859	106.893684643715	1
3	5871	107.142067593724	1
3	5877	107.163895680709	1
3	5879	107.255810834145	1
3	5887	107.321750661361	1
3	5903	107.649215258678	1
3	5905	107.65320051905	1
3	5916	107.767714829938	1
3	5918	107.793938422824	1
3	5926	107.923095015117	1
3	5937	108.12844406044	1
3	5959	108.50268451206	1
3	5961	108.507315214071	1
3	5967	108.563878904276	1
3	5969	108.63236340105	1
3	5981	108.826633282734	1
3	5998	109.124085356599	1
3	6013	109.369480239236	1
3	6021	109.546458985961	1
3	6027	109.64456610909	1
3	6039	109.820700125249	1
3	6046	109.920990079636	1
3	6048	109.952346001397	1
3	6064	110.2285610136	1
3	6072	110.316044731641	1
3	6078	110.437674808153	1
3	6089	110.56836431451	1
3	6092	110.615546536023	1
3	6128	111.302643175984	1
3	6134	111.402689879668	1
3	6136	111.436895623694	1
3	6144	111.485308283226	1
3	6146	111.52800785831	1
3	6152	111.566317290789	1
3	6154	111.611924191721	1
3	6165	111.768012742419	1
3	6177	111.976060379209	1
3	6194	112.357060338847	1
3	6201	112.448650418557	1
3	6208	112.482210995402	1
3	6210	112.491003120558	1
3	6226	112.808859144167	1
3	6233	112.915408101394	1
3	6240	113.0094580112	1
3	6242	113.045189006436	1
3	6253	113.238825790941	1
3	6270	113.479198296579	1
3	6272	113.533316086584	1
3	6279	113.586246569285	1
3	6286	113.686956565747	1
3	6288	113.691155699032	1
3	6290	113.725317755299	1
3	6296	113.860318535462	1
3	6303	113.874237221474	1
3	6315	114.15276875955	1
3	6322	114.179941231322	1
3	6324	114.251892639766	1
3	6331	114.356766381167	1
3	6347	114.564625546383	1
3	6359	114.797004732451	1
3	6366	114.904357054127	1
3	6382	115.255247320709	1
3	6393	115.372037333001	1
3	6396	115.409215043462	1
3	6422	115.889939966587	1
3	6434	116.090926583333	1
3	6446	116.335342752824	1
3	6452	116.380063817094	1
3	6454	116.384992366505	1
3	6461	116.509581155076	1
3	6473	116.694945704634	1
3	6475	116.716254503168	1
3	6481	116.810078198575	1
3	6489	116.879881408096	1
3	6510	117.322062636494	1
3	6512	117.33503616623	1
3	6518	117.372581149576	1
3	6526	117.478281005532	1
3	6528	117.524887179998	1
3	6539	117.702712276685	1
3	6541	117.715460031652	1
3	6548	117.807050822687	1
3	6555	117.891005634372	1
3	6557	117.958247758373	1
3	6563	117.975562544898	1
3	6575	118.229491591764	1
3	6587	118.38017251753	1
3	6589	118.387206626177	1
3	6600	118.63086136905	1
3	6608	118.704472615866	1
3	6619	118.883477254898	1
3	6625	118.975495507482	1
3	6637	119.193496193125	1
3	6649	119.3931149908	1
3	6651	119.45600110054	1
3	6672	119.81658907276	1
3	6689	120.097064886407	1
3	6691	120.145800940046	1
3	6698	120.229795120488	1
3	6715	120.485166642357	1
3	6726	120.7457657433	1
3	6738	120.905970579204	1
3	6744	121.053694627712	1
3	6746	121.055396291109	1
3	6753	121.078617959285	1
3	6765	121.278022115674	1
3	6767	121.290266581886	1
3	6774	121.429026442652	1
3	6776	121.431801857258	1
3	6787	121.602725974832	1
3	6789	121.613084279769	1
3	6797	121.744630283873	1
3	6803	121.836665334493	1
3	6814	121.964494149763	1
3	6817	121.982538528123	1
3	6819	122.049720252976	1
3	6821	122.05394674303	1
3	6847	122.531980310911	1
3	6859	122.742870086322	1
3	6894	123.393632580054	1
3	6901	123.468974536275	1
3	6904	123.542416230246	1
3	6915	123.748534637504	1
3	6931	124.019882694947	1
3	6939	124.110215543002	1
3	6970	124.714014133938	1
3	6976	124.803713343699	1
3	6983	124.935762496894	1
3	6990	125.033296487171	1
3	7001	125.200020122316	1
3	7009	125.296389352081	1
3	7011	125.309920166583	1
3	7022	125.553727317249	1
3	7051	126.268010897581	1
3	7054	126.345234065831	1
3	7065	126.572012831386	1
3	7077	126.924599860822	1
3	7103	127.701408143395	1
3	7106	127.707072932079	1
3	7114	127.866135968911	1
3	7123	128.089135634091	1
3	7126	128.094857586295	1
3	7129	128.114997285799	1
3	7138	128.305455086012	1
3	7143	128.450007085288	1
3	7152	128.62477572718	1
3	7155	128.626338478385	1
3	7163	128.767123948324	1
3	7169	128.883156308722	1
3	7173	128.899999189043	1
3	7176	128.900452567754	1
3	7179	128.949870910584	1
3	7195	129.402855551995	1
3	7204	129.627415727832	1
3	7218	129.981133623183	1
3	7230	130.312451810045	1
3	7239	130.550872795791	1
3	7244	130.658058852518	1
3	7259	131.028309329443	1
3	7267	131.216972304496	1
3	7270	131.240568343545	1
3	7273	131.252713881183	1
3	7279	131.27846209051	1
3	7285	131.421757460971	1
3	7288	131.452927675908	1
3	7300	131.725770023283	1
3	7308	131.871896100105	1
3	7314	132.05050789827	1
3	7328	132.4048732881	1
3	7335	132.526345445392	1
3	7357	133.216450124645	1
3	7369	133.512647115129	1
3	7378	133.69890997438	1
3	7386	133.904072978344	1
3	7395	134.101476556326	1
3	7398	134.147567324421	1
3	7412	134.507585768998	1
3	7451	135.763626435763	1
3	7455	135.840468870898	1
3	7463	135.968371891124	1
3	7466	136.011494340569	1
3	7475	136.164350445144	1
3	7478	136.192921076224	1
3	7484	136.29383443503	1
3	7487	136.312916920682	1
3	7498	136.643157955794	1
3	7510	136.8943429127	1
3	7521	137.205672611248	1
3	7524	137.229485463591	1
3	7536	137.511859564249	1
3	7539	137.55789897788	1
3	7548	137.71439996399	1
3	7559	137.970862620687	1
3	7565	138.102993434255	1
3	7568	138.158780704507	1
3	7574	138.208386425342	1
3	7594	138.814513630035	1
3	7617	139.532409635914	1
3	7622	139.578927155179	1
3	7631	139.820088951815	1
3	7637	139.934512856759	1
3	7643	140.03897660761	1
3	7649	140.095610404963	1
3	7658	140.317579451914	1
3	7672	140.680064915129	1
3	7675	140.699971253123	1
3	7680	140.768458957479	1
3	7692	141.149238989896	1
3	7698	141.234505169203	1
3	7701	141.241386095509	1
3	7707	141.349092071983	1
3	7712	141.388025242159	1
3	7727	141.807278561544	1
3	7738	142.084515036196	1
3	7741	142.089230742349	1
3	7745	142.143930678066	1
3	7753	142.333212636179	1
3	7759	142.432553417668	1
3	7773	142.765040608594	1
3	7779	142.922536895103	1
3	7782	142.926686860415	1
3	7785	142.94999958091	1
3	7791	143.060737346631	1
3	7797	143.115486242672	1
3	7802	143.174662749433	1
3	7814	143.501612321282	1
3	7825	143.79598308745	1
3	7837	144.122828518249	1
3	7843	144.24547072916	1
3	7849	144.354078710726	1
3	7858	144.529866459815	1
3	7863	144.576475813671	1
3	7869	144.666931616771	1
3	7880	144.985401100342	1
3	7887	145.133854979157	1
3	7892	145.237223265288	1
3	7898	145.288617275502	1
3	7901	145.34946087806	1
3	7904	145.350869760601	1
3	7922	145.688506208674	1
3	7931	145.817477151444	1
3	7933	145.851791619382	1
3	7937	145.907765459846	1
3	7949	146.164656133318	1
3	7956	146.273900055211	1
3	7972	146.547701698121	1
3	7994	146.919968960566	1
3	8001	147.030940652054	1
3	8007	147.114333659252	1
3	8009	147.140833120584	1
3	8011	147.183465540519	1
3	8038	147.629787402428	1
3	8044	147.699401077332	1
3	8046	147.708594500193	1
3	8068	148.111525580969	1
3	8085	148.437917765126	1
3	8106	148.852297791888	1
3	8112	148.980416435873	1
3	8129	149.259418923517	1
3	8136	149.330845575286	1
3	8157	149.710092588428	1
3	8164	149.863717942506	1
3	8171	149.902514179835	1
3	8173	149.923025862741	1
3	8175	149.936758017762	1
3	8182	150.015067010175	1
3	8184	150.05374856051	1
3	8190	150.119852591316	1
3	8192	150.17646661326	1
3	8200	150.201048598254	1
3	8202	150.229861820195	1
3	8218	150.521046702629	1
3	8225	150.661174498796	1
3	8227	150.677313557361	1
3	8233	150.75737305108	1
3	8260	151.216400884142	1
3	8272	151.470610644146	1
3	8278	151.497985367335	1
3	8280	151.528694443452	1
3	8287	151.615507776603	1
3	8299	151.797044909582	1
3	8301	151.823272291205	1
3	8303	151.864508022354	1
3	8319	152.181640013505	1
3	8331	152.309714566696	1
3	8338	152.407357185596	1
3	8340	152.471741172939	1
3	8346	152.548153515154	1
3	8348	152.556951202378	1
3	8356	152.605286057712	1
3	8358	152.644259847497	1
3	8360	152.652213208114	1
3	8371	152.815855619358	1
3	8373	152.838255026034	1
3	8380	152.941404390124	1
3	8391	153.167598051326	1
3	8399	153.277386238635	1
3	8405	153.306798207995	1
3	8407	153.335603118101	1
3	8414	153.466961304656	1
3	8426	153.593806737344	1
3	8447	153.988728294875	1
3	8488	154.848251470105	1
3	8490	154.865338329212	1
3	8506	155.119943605218	1
3	8513	155.210342072487	1
3	8520	155.345690124493	1
3	8522	155.37112920856	1
3	8553	155.930516121774	1
3	8555	155.984922408004	1
3	8576	156.332672553294	1
3	8588	156.549339873555	1
3	8595	156.685145434739	1
3	8607	156.833040579019	1
3	8609	156.837985135106	1
3	8620	157.024233905615	1
3	8622	157.03897130106	1
3	8624	157.071221675119	1
3	8626	157.081362633188	1
3	8632	157.091995395538	1
3	8635	157.182144368807	1
3	8656	157.499754507799	1
3	8658	157.570359448341	1
3	8665	157.628175495688	1
3	8691	158.183622443515	1
3	8703	158.322755534338	1
3	8705	158.350340947396	1
3	8731	158.816207079807	1
3	8757	159.356819406327	1
3	8764	159.4374441652	1
3	8776	159.656257714097	1
3	8782	159.688960886033	1
3	8794	159.949754421464	1
3	8796	159.976987825313	1
3	8808	160.127189899823	1
3	8815	160.27423713944	1
3	8827	160.439961622956	1
3	8829	160.448652660673	1
3	8835	160.545844990184	1
3	8842	160.605592980103	1
3	8844	160.607576490072	1
3	8875	161.197500937736	1
3	8877	161.262813695921	1
3	8889	161.484310494868	1
3	8895	161.585922773633	1
3	8903	161.621154424544	1
3	8914	161.817605101895	1
3	8921	161.949628653778	1
3	8928	162.044472690905	1
3	8934	162.131388708044	1
3	8942	162.223097499246	1
3	8948	162.365712036961	1
3	8950	162.387928361542	1
3	8957	162.445771433259	1
3	8959	162.447413700943	1
3	8961	162.465214299604	1
3	8973	162.678209509141	1
3	8979	162.734525853545	1
3	8986	162.792364821029	1
3	9022	163.558219258281	1
3	9053	164.182132915342	1
3	9060	164.209320586488	1
3	9062	164.24663484123	1
3	9069	164.339876098213	1
3	9076	164.401910071081	1
3	9082	164.553301442849	1
3	9090	164.664619329688	1
3	9092	164.670288312585	1
3	9103	164.881196434401	1
3	9110	164.925005033704	1
3	9117	165.018508405965	1
3	9133	165.324787107476	1
3	9135	165.344786398733	1