version 3
run FeedbackVersion-9-20240511-20:48:08-11935
attr configname FeedbackVersion
attr datetime 20240511-20:48:08
attr datetimef 20240511-204808
attr experiment FeedbackVersion
attr inifile omnetpp.ini
attr iterationvars $genInterval=0.55
attr iterationvarsd genInterval=0.55
attr iterationvarsf genInterval=0.55-
attr measurement $genInterval=0.55
attr network NetworkFV
attr processid 11935
attr repetition 0
attr replication #0
attr resultdir results
attr runnumber 9
attr seedset 9
itervar genInterval 0.55
config network NetworkFV
config sim-time-limit 200s
config NetworkFV.nodeTx.gen.generationInterval exponential(0.55)
config NetworkFV.nodeTx.gen.packetByteSize 12500
config NetworkFV.queueOne.bufferSize 200
config NetworkFV.nodeRx.queue.bufferSize 200
config NetworkFV.nodeTx.queue.bufferSize 2000000
config NetworkFV.queueZero.bufferSize 200

vector 0 NetworkFV.nodeRx.queue PacketsLost ETV
vector 1 NetworkFV.nodeRx.queue PacketsAsked ETV
vector 2 NetworkFV.queueOne bufferSize ETV
vector 3 NetworkFV.nodeTx.gen packetGen ETV
vector 4 NetworkFV.nodeTx.queue BufferSize ETV
vector 5 NetworkFV.nodeTx.queue PacketsSent ETV
vector 6 NetworkFV.queueZero bufferSize ETV
vector 7 NetworkFV.nodeRx.queue BufferSize ETV
vector 8 NetworkFV.nodeRx.sink Delay ETV
vector 9 NetworkFV.nodeRx.sink packetUsed ETV
0	1	0	1
0	12	0.2	1
0	53	1.3006	1
0	116	2.8016	1
0	120	3.1018	1
0	201	4.903	1
0	287	7.3046	1
0	288	7.6048	1
0	289	7.905	1
0	296	8.2052	1
0	308	8.8056	1
0	326	9.7062	1
0	331	10.0064	1
0	332	10.3066	1
0	333	10.6068	1
0	340	10.907	1
0	353	11.5074	1
0	366	12.1078	1
0	387	12.7082	1
0	398	12.941742940604	1
0	400	13.0084	1
0	403	13.3086	1
0	404	13.6088	1
0	413	13.909	1
0	444	15.1098	1
0	445	15.41	1
0	446	15.7102	1
0	447	16.0104	1
0	454	16.3106	1
0	483	17.2112	1
0	496	17.8116	1
0	503	18.412	1
0	504	18.7122	1
0	505	19.0124	1
0	509	19.3126	1
0	545	20.2132	1
0	558	20.8136	1
0	575	21.414	1
0	582	22.0144	1
0	589	22.3146	1
0	602	22.915	1
0	625	23.8156	1
0	632	24.1158	1
0	639	24.7162	1
0	640	25.0164	1
0	641	25.3166	1
0	648	25.6168	1
0	671	26.5174	1
0	678	26.8176	1
0	689	27.418	1
0	696	27.7182	1
0	703	28.3186	1
0	704	28.6188	1
0	705	28.919	1
0	706	29.2192	1
0	711	29.5194	1
0	715	29.8196	1
0	734	30.1198	1
0	740	30.42	1
0	756	31.0204	1
0	757	31.3206	1
0	758	31.6208	1
0	759	31.921	1
0	766	32.2212	1
0	796	33.1218	1
0	822	34.0224	1
0	829	34.3226	1
0	859	35.5234	1
0	866	35.8236	1
0	877	36.424	1
0	878	36.7242	1
0	879	37.0244	1
0	880	37.3246	1
0	884	37.6248	1
0	894	38.2252	1
0	899	38.5254	1
0	900	38.8256	1
0	901	39.1258	1
0	902	39.426	1
0	903	39.7262	1
0	915	40.0264	1
0	948	40.6268	1
0	979	41.8276	1
0	980	42.1278	1
0	987	42.428	1
0	994	43.0284	1
0	1001	43.3286	1
0	1012	43.929	1
0	1013	44.2292	1
0	1022	44.5294	1
0	1043	45.43	1
0	1075	46.3306	1
0	1170	48.7322	1
0	1193	49.6328	1
0	1194	49.933	1
0	1201	50.2332	1
0	1208	50.8336	1
0	1209	51.1338	1
0	1220	51.434	1
0	1227	52.0344	1
0	1228	52.3346	1
0	1229	52.6348	1
0	1230	52.935	1
0	1231	53.2352	1
0	1245	53.5354	1
0	1255	53.8356	1
0	1256	54.1358	1
0	1257	54.436	1
0	1258	54.7362	1
0	1265	55.0364	1
0	1279	55.6368	1
0	1307	56.5374	1
0	1339	57.7382	1
0	1340	58.0384	1
0	1350	58.3386	1
0	1375	59.2392	1
0	1376	59.5394	1
0	1377	59.8396	1
0	1382	60.1398	1
0	1383	60.44	1
0	1384	60.7402	1
0	1391	61.0404	1
0	1419	61.941	1
0	1503	63.7422	1
0	1575	65.2432	1
0	1639	67.0444	1
0	1643	67.3446	1
0	1660	67.945	1
0	1682	68.8456	1
0	1688	69.1458	1
0	1722	70.3466	1
0	1729	70.947	1
0	1730	71.2472	1
0	1741	71.5474	1
0	1790	73.0484	1
0	1791	73.3486	1
0	1803	73.6488	1
0	1819	74.2492	1
0	1826	74.5494	1
0	1894	76.3506	1
0	1918	76.951	1
0	1985	78.7522	1
0	1998	79.3526	1
0	2024	80.2532	1
0	2033	80.5534	1
0	2057	81.454	1
0	2058	81.7542	1
0	2065	82.0544	1
0	2121	83.5554	1
0	2138	84.1558	1
0	2187	85.6568	1
0	2188	85.957	1
0	2189	86.2572	1
0	2190	86.5574	1
0	2203	86.8576	1
0	2222	87.1578	1
0	2257	88.3586	1
0	2258	88.6588	1
0	2259	88.959	1
0	2263	89.2592	1
0	2279	89.8596	1
0	2289	90.46	1
0	2328	91.3606	1
0	2352	92.2612	1
0	2370	93.1618	1
0	2371	93.462	1
0	2372	93.7622	1
0	2373	94.0624	1
0	2374	94.3626	1
0	2379	94.6628	1
0	2383	94.963	1
0	2394	95.2632	1
0	2408	95.5634	1
0	2491	97.6648	1
0	2521	98.5654	1
0	2543	99.466	1
0	2544	99.7662	1
0	2555	100.0664	1
0	2610	101.5674	1
0	2621	102.1678	1
0	2634	102.468	1
0	2659	103.3686	1
0	2677	104.2692	1
0	2678	104.5694	1
0	2679	104.8696	1
0	2690	105.1698	1
0	2697	105.7702	1
0	2698	106.0704	1
0	2707	106.3706	1
0	2734	107.5714	1
0	2735	107.8716	1
0	2740	108.1718	1
0	2741	108.472	1
0	2742	108.7722	1
0	2751	109.0724	1
0	2761	109.3726	1
0	2762	109.6728	1
0	2763	109.973	1
0	2764	110.2732	1
0	2776	110.5734	1
0	2787	111.1738	1
0	2791	111.474	1
0	2821	112.3746	1
0	2881	113.8756	1
0	2897	114.476	1
0	2907	115.0764	1
0	2933	115.977	1
0	2940	116.2772	1
0	2947	116.8776	1
0	2954	117.1778	1
0	2985	118.3786	1
0	2986	118.6788	1
0	2991	118.979	1
0	2998	119.2792	1
0	3005	119.8796	1
0	3006	120.1798	1
0	3007	120.48	1
0	3008	120.7802	1
0	3019	121.0804	1
0	3032	121.3806	1
0	3056	121.981	1
0	3072	122.5814	1
0	3073	122.8816	1
0	3080	123.1818	1
0	3087	123.7822	1
0	3088	124.0824	1
0	3098	124.3826	1
0	3114	124.6828	1
0	3163	125.8836	1
0	3187	126.7842	1
0	3191	127.0844	1
0	3205	127.6848	1
0	3206	127.985	1
0	3219	128.2852	1
0	3242	129.1858	1
0	3252	129.7862	1
0	3259	130.0864	1
0	3270	130.6868	1
0	3277	130.987	1
0	3284	131.5874	1
0	3291	131.8876	1
0	3314	132.7882	1
0	3325	133.0884	1
0	3347	133.6888	1
0	3354	134.2892	1
0	3365	134.5894	1
0	3383	135.1898	1
0	3394	135.7902	1
0	3401	136.0904	1
0	3408	136.6908	1
0	3409	136.991	1
0	3413	137.2912	1
0	3429	137.8916	1
0	3458	138.7922	1
0	3469	139.3926	1
0	3470	139.6928	1
0	3471	139.993	1
0	3472	140.2932	1
0	3481	140.5934	1
0	3510	141.494	1
0	3511	141.7942	1
0	3512	142.0944	1
0	3516	142.3946	1
0	3552	143.5954	1
0	3586	144.496	1
0	3600	145.0964	1
0	3610	145.3966	1
0	3624	145.997	1
0	3625	146.2972	1
0	3629	146.5974	1
0	3659	147.498	1
0	3687	148.3986	1
0	3694	148.999	1
0	3695	149.2992	1
0	3696	149.5994	1
0	3697	149.8996	1
0	3704	150.1998	1
0	3718	150.5	1
0	3719	150.8002	1
0	3726	151.1004	1
0	3737	151.7008	1
0	3738	152.001	1
0	3739	152.3012	1
0	3740	152.6014	1
0	3741	152.9016	1
0	3748	153.2018	1
0	3762	153.502	1
0	3772	153.8022	1
0	3812	155.003	1
0	3830	155.9036	1
0	3831	156.2038	1
0	3832	156.504	1
0	3833	156.8042	1
0	3837	157.1044	1
0	3857	157.4046	1
0	3876	158.005	1
0	3889	158.6054	1
0	3906	159.2058	1
0	3982	161.3072	1
0	3983	161.6074	1
0	3990	161.9076	1
0	4040	163.1084	1
0	4062	164.009	1
0	4072	164.6094	1
0	4079	164.9096	1
0	4102	165.8102	1
0	4109	166.1104	1
0	4122	166.7108	1
0	4164	168.2118	1
0	4165	168.512	1
0	4172	168.8122	1
0	4183	169.4126	1
0	4193	169.7128	1
0	4227	170.6134	1
0	4273	171.8142	1
0	4318	173.3152	1
0	4319	173.6154	1
0	4320	173.9156	1
0	4324	174.2158	1
0	4334	174.8162	1
0	4335	175.1164	1
0	4340	175.4166	1
0	4347	175.7168	1
0	4354	176.3172	1
0	4355	176.6174	1
0	4362	176.9176	1
0	4381	177.8182	1
0	4386	178.1184	1
0	4390	178.4186	1
0	4407	178.7188	1
0	4410	179.019	1
0	4411	179.3192	1
0	4412	179.6194	1
0	4413	179.9196	1
0	4414	180.2198	1
0	4425	180.52	1
0	4430	180.8202	1
0	4441	181.1204	1
0	4460	181.4206	1
0	4471	182.021	1
0	4482	182.3212	1
0	4507	182.9216	1
0	4542	183.8222	1
0	4546	184.1224	1
0	4594	185.6234	1
0	4595	185.9236	1
0	4596	186.2238	1
0	4603	186.524	1
0	4683	188.6254	1
0	4684	188.9256	1
0	4685	189.2258	1
0	4689	189.526	1
0	4741	191.027	1
0	4748	191.6274	1
0	4759	191.9276	1
0	4790	193.1284	1
0	4791	193.4286	1
0	4798	193.7288	1
0	4823	194.6294	1
0	4834	195.2298	1
0	4835	195.53	1
0	4845	195.8302	1
0	4860	196.7308	1
0	4867	197.031	1
0	4886	197.9316	1
0	4899	198.2318	1
0	4931	199.1324	1
0	4944	199.7328	1
1	1	0	2
1	26	0.555240613964	2
1	55	1.31881267591	4
1	107	2.295413794696	6
1	182	4.368540748444	10
1	278	6.721006807974	15
1	326	9.7062	7
1	366	12.1078	2
1	389	12.741742940604	2
1	417	14.07734627502	3
1	456	16.418975227851	5
1	509	19.3126	2
1	530	19.812350559935	2
1	560	21.010604951503	4
1	616	23.33244674988	6
1	648	25.6168	3
1	680	26.835446145612	3
1	706	29.2192	1
1	728	30.076844751569	1
1	747	30.690142879636	2
1	779	32.52911107331	3
1	813	33.677188618984	5
1	868	35.917392947859	8
1	894	38.2252	4
1	915	40.0264	1
1	921	40.030397215345	1
1	930	40.230397215345	2
1	958	40.952423971622	3
1	1003	43.391530093227	4
1	1063	45.978360246571	6
1	1127	47.597778380348	10
1	1209	51.1338	5
1	1231	53.2352	1
1	1247	53.655862078659	1
1	1267	55.23050550159	2
1	1295	56.070544936559	3
1	1330	57.213614777696	5
1	1377	59.8396	2
1	1407	61.616205547291	2
1	1437	62.399236968451	4
1	1482	63.422897446015	6
1	1554	64.897828117393	9
1	1648	67.582199143433	14
1	1730	71.2472	7
1	1810	73.864113121976	7
1	1899	76.473372934867	10
1	2015	79.904622053614	16
1	2121	83.5554	8
1	2203	86.8576	2
1	2216	87.151745009717	2
1	2242	87.570090346758	4
1	2289	90.46	2
1	2310	91.055172290349	2
1	2338	91.717120198489	3
1	2374	94.3626	1
1	2388	95.194798351672	1
1	2410	95.621381897241	2
1	2436	96.213225312009	3
1	2474	97.135193149427	5
1	2534	98.865667438744	7
1	2612	101.725070884483	11
1	2679	104.8696	5
1	2735	107.8716	1
1	2753	109.22742152847	1
1	2778	110.57432990171	2
1	2804	111.892877571025	4
1	2850	113.015968965231	6
1	2924	115.527986859308	9
1	2986	118.6788	4
1	3008	120.7802	1
1	3021	121.171506100842	1
1	3037	121.604142291746	2
1	3063	122.208182891085	3
1	3098	124.3826	1
1	3106	124.492981499912	1
1	3116	124.692981499912	2
1	3146	125.518188082523	4
1	3196	127.300718319952	6
1	3259	130.0864	3
1	3296	131.908806015788	3
1	3332	133.314723227174	4
1	3385	135.306108865383	6
1	3429	137.8916	3
1	3460	138.837705630598	3
1	3501	141.126007092063	5
1	3568	144.009832004905	7
1	3629	146.5974	3
1	3666	147.618502357325	3
1	3704	150.1998	1
1	3710	150.220772567782	1
1	3728	151.239512247248	2
1	3748	153.2018	1
1	3754	153.358281670576	1
1	3774	153.928066684734	2
1	3800	154.497691408393	3
1	3837	157.1044	1
1	3851	157.31656785305	1
1	3861	157.51656785305	2
1	3891	158.777732318205	3
1	3933	159.937505324753	5
1	3998	161.994595602735	8
1	4093	165.447341317603	12
1	4172	168.8122	6
1	4242	170.970279292641	6
1	4309	172.813531148328	9
1	4335	175.1164	4
1	4381	177.8182	1
1	4401	178.626318145579	1
1	4414	180.2198	0
1	4425	180.52	0
1	4430	180.8202	1
1	4443	181.121032079752	1
1	4462	181.47742058555	2
1	4492	182.532541061034	3
1	4533	183.500369683702	5
1	4585	185.196810776139	8
1	4674	188.292393815432	13
1	4748	191.6274	6
1	4825	194.654684594368	6
1	4886	197.9316	3
1	4919	198.815535449916	3
2	2	0	1
2	28	0.555240613964	1
2	57	1.31881267591	1
2	109	2.295413794696	1
2	184	4.368540748444	1
2	280	6.721006807974	1
2	327	9.7062	1
2	367	12.1078	1
2	391	12.741742940604	1
2	419	14.07734627502	1
2	458	16.418975227851	1
2	510	19.3126	1
2	532	19.812350559935	1
2	562	21.010604951503	1
2	618	23.33244674988	1
2	649	25.6168	1
2	682	26.835446145612	1
2	707	29.2192	1
2	730	30.076844751569	1
2	749	30.690142879636	1
2	781	32.52911107331	1
2	815	33.677188618984	1
2	870	35.917392947859	1
2	895	38.2252	1
2	916	40.0264	1
2	923	40.030397215345	1
2	932	40.230397215345	1
2	960	40.952423971622	1
2	1005	43.391530093227	1
2	1065	45.978360246571	1
2	1129	47.597778380348	1
2	1210	51.1338	1
2	1232	53.2352	1
2	1249	53.655862078659	1
2	1269	55.23050550159	1
2	1297	56.070544936559	1
2	1332	57.213614777696	1
2	1378	59.8396	1
2	1409	61.616205547291	1
2	1439	62.399236968451	1
2	1484	63.422897446015	1
2	1556	64.897828117393	1
2	1650	67.582199143433	1
2	1731	71.2472	1
2	1812	73.864113121976	1
2	1901	76.473372934867	1
2	2017	79.904622053614	1
2	2122	83.5554	1
2	2204	86.8576	1
2	2218	87.151745009717	1
2	2244	87.570090346758	1
2	2290	90.46	1
2	2312	91.055172290349	1
2	2340	91.717120198489	1
2	2375	94.3626	1
2	2390	95.194798351672	1
2	2412	95.621381897241	1
2	2438	96.213225312009	1
2	2476	97.135193149427	1
2	2536	98.865667438744	1
2	2614	101.725070884483	1
2	2680	104.8696	1
2	2736	107.8716	1
2	2755	109.22742152847	1
2	2780	110.57432990171	1
2	2806	111.892877571025	1
2	2852	113.015968965231	1
2	2926	115.527986859308	1
2	2987	118.6788	1
2	3009	120.7802	1
2	3023	121.171506100842	1
2	3039	121.604142291746	1
2	3065	122.208182891085	1
2	3099	124.3826	1
2	3108	124.492981499912	1
2	3118	124.692981499912	1
2	3148	125.518188082523	1
2	3198	127.300718319952	1
2	3260	130.0864	1
2	3298	131.908806015788	1
2	3334	133.314723227174	1
2	3387	135.306108865383	1
2	3430	137.8916	1
2	3462	138.837705630598	1
2	3503	141.126007092063	1
2	3570	144.009832004905	1
2	3630	146.5974	1
2	3668	147.618502357325	1
2	3705	150.1998	1
2	3712	150.220772567782	1
2	3730	151.239512247248	1
2	3749	153.2018	1
2	3756	153.358281670576	1
2	3776	153.928066684734	1
2	3802	154.497691408393	1
2	3838	157.1044	1
2	3853	157.31656785305	1
2	3863	157.51656785305	1
2	3893	158.777732318205	1
2	3935	159.937505324753	1
2	4000	161.994595602735	1
2	4095	165.447341317603	1
2	4173	168.8122	1
2	4244	170.970279292641	1
2	4311	172.813531148328	1
2	4336	175.1164	1
2	4382	177.8182	1
2	4403	178.626318145579	1
2	4415	180.2198	1
2	4426	180.52	1
2	4431	180.8202	1
2	4445	181.121032079752	1
2	4464	181.47742058555	1
2	4494	182.532541061034	1
2	4535	183.500369683702	1
2	4587	185.196810776139	1
2	4676	188.292393815432	1
2	4749	191.6274	1
2	4827	194.654684594368	1
2	4887	197.9316	1
2	4921	198.815535449916	1
3	6	0.005735589651	1
3	13	0.255040613964	1
3	32	0.638337493436	1
3	45	1.01861267591	1
3	61	1.395213794696	1
3	64	1.399378225901	1
3	68	1.478398675955	1
3	76	1.687467622076	1
3	83	1.771771988298	1
3	85	1.779148338008	1
3	95	1.914786704006	1
3	117	3.068340748444	1
3	126	3.366527859708	1
3	134	3.447901033795	1
3	145	3.604735460569	1
3	151	3.686801908444	1
3	155	3.735094130812	1
3	167	4.012289792856	1
3	175	4.245424683726	1
3	191	4.620806807974	1
3	197	4.72115606059	1
3	207	4.929810561191	1
3	249	6.089390637913	1
3	263	6.346970446686	1
3	290	8.005331082799	1
3	303	8.735035824424	1
3	306	8.756771311182	1
3	334	10.648235780047	1
3	347	11.30878680368	1
3	360	11.973818020816	1
3	377	12.441542940604	1
3	380	12.521577505269	1
3	405	13.77714627502	1
3	408	13.857551098459	1
3	431	14.462171289089	1
3	448	16.118775227851	1
3	464	16.555318081127	1
3	477	16.998244780326	1
3	490	17.664898189836	1
3	506	19.243454772314	1
3	517	19.512150559935	1
3	539	20.058322320797	1
3	552	20.710404951503	1
3	569	21.168065323333	1
3	583	22.126291469566	1
3	596	22.687540413583	1
3	606	23.03224674988	1
3	626	23.828783168161	1
3	642	25.380987306096	1
3	653	25.639673554811	1
3	672	26.535246145612	1
3	690	27.523899311071	1
3	712	29.776644751569	1
3	716	29.837324112576	1
3	721	29.939564402869	1
3	724	29.985015525417	1
3	737	30.389942879636	1
3	741	30.428480268769	1
3	760	32.02891107331	1
3	772	32.40030810059	1
3	788	32.976988618984	1
3	794	33.106264833085	1
3	823	34.190904916081	1
3	860	35.617192947859	1
3	881	37.561532808134	1
3	904	39.730197215345	1
3	910	39.843074833572	1
3	939	40.452223971622	1
3	945	40.605423636479	1
3	966	41.084847230711	1
3	981	42.221548390874	1
3	995	43.091330093227	1
3	1014	44.393408159652	1
3	1017	44.419712275651	1
3	1037	45.200694073309	1
3	1049	45.678160246571	1
3	1056	45.912475654574	1
3	1059	45.955063992894	1
3	1072	46.297578380348	1
3	1076	46.393518602294	1
3	1098	46.91216218028	1
3	1112	47.226065126155	1
3	1133	47.603221094294	1
3	1147	48.098672898523	1
3	1158	48.4561937498	1
3	1163	48.539247498266	1
3	1174	48.853799727161	1
3	1195	50.114329632493	1
3	1214	51.238181196403	1
3	1236	53.355662078659	1
3	1242	53.469768049746	1
3	1259	54.93030550159	1
3	1276	55.570344936559	1
3	1285	55.844721219135	1
3	1304	56.513414777696	1
3	1311	56.70127299162	1
3	1341	58.127389134818	1
3	1347	58.336883088731	1
3	1351	58.359022928789	1
3	1385	60.743115695115	1
3	1397	61.316005547291	1
3	1400	61.340093846085	1
3	1416	61.899036968451	1
3	1423	62.00159387754	1
3	1433	62.342228076934	1
3	1445	62.522697446015	1
3	1449	62.55268286207	1
3	1461	62.836778181703	1
3	1464	62.858412143873	1
3	1489	63.474402222671	1
3	1497	63.57657307123	1
3	1501	63.727229844717	1
3	1535	64.597628117393	1
3	1544	64.705075344898	1
3	1547	64.802678702202	1
3	1550	64.878234680303	1
3	1561	64.960381215078	1
3	1566	65.000345697897	1
3	1573	65.239750044489	1
3	1600	65.794935751016	1
3	1615	66.159373988366	1
3	1640	67.281999143433	1
3	1657	67.940049804542	1
3	1664	68.180585325673	1
3	1683	69.068965612403	1
3	1686	69.088436415453	1
3	1692	69.259102415118	1
3	1716	70.089904345302	1
3	1735	71.411082769121	1
3	1745	71.767257631141	1
3	1748	71.779980484075	1
3	1752	71.820616165093	1
3	1765	72.079226197067	1
3	1792	73.363913121976	1
3	1798	73.4863900442	1
3	1820	74.383371985003	1
3	1827	74.614248156529	1
3	1830	74.616764017166	1
3	1846	74.939717956908	1
3	1853	75.074736539827	1
3	1870	75.453924857927	1
3	1888	76.173172934867	1
3	1895	76.467437601357	1
3	1908	76.679354064927	1
3	1914	76.811972370335	1
3	1929	77.249770564798	1
3	1940	77.384059971539	1
3	1943	77.404665865178	1
3	1949	77.55006690675	1
3	1979	78.48481249314	1
3	1992	79.20308634108	1
3	2004	79.604422053614	1
3	2011	79.900165322972	1
3	2025	80.303291735	1
3	2039	80.785545637734	1
3	2059	81.781065338252	1
3	2069	82.156101575983	1
3	2072	82.160599693758	1
3	2085	82.469810270231	1
3	2096	82.695902170789	1
3	2115	83.425830341371	1
3	2132	83.896004787994	1
3	2144	84.342834921457	1
3	2147	84.422553155059	1
3	2155	84.62079520262	1
3	2161	84.708106325822	1
3	2191	86.651545009717	1
3	2194	86.682288352868	1
3	2199	86.82236740559	1
3	2225	87.269890346758	1
3	2231	87.352056330503	1
3	2260	89.164300769262	1
3	2273	89.689185876906	1
3	2286	90.382548617841	1
3	2300	90.754972290349	1
3	2319	91.216920198489	1
3	2325	91.328186925045	1
3	2347	92.181133779264	1
3	2350	92.244801455917	1
3	2380	94.894598351672	1
3	2397	95.321181897241	1
3	2400	95.343421671752	1
3	2405	95.531248798924	1
3	2416	95.713025312009	1
3	2421	95.772843131275	1
3	2444	96.434993149427	1
3	2459	96.805981764087	1
3	2464	96.894875118514	1
3	2483	97.444831951846	1
3	2511	98.365467438744	1
3	2514	98.386757297931	1
3	2516	98.403438502192	1
3	2529	98.784788174041	1
3	2545	99.780798644406	1
3	2548	99.828780976623	1
3	2556	100.069496181495	1
3	2589	100.931315834032	1
3	2604	101.424870884483	1
3	2622	102.205302425154	1
3	2625	102.209324260412	1
3	2630	102.376624216306	1
3	2654	103.29413643136	1
3	2657	103.352609658503	1
3	2684	104.894247903679	1
3	2699	106.264429435212	1
3	2702	106.359685766016	1
3	2716	106.76046633657	1
3	2743	108.92722152847	1
3	2746	109.006057952579	1
3	2765	110.27412990171	1
3	2768	110.339797338888	1
3	2773	110.379087188191	1
3	2788	111.392677571025	1
3	2813	112.115768965231	1
3	2829	112.550171459994	1
3	2843	112.88431940099	1
3	2856	113.050683286168	1
3	2878	113.836478681595	1
3	2891	114.308164393295	1
3	2904	115.020622311182	1
3	2911	115.227786859308	1
3	2934	116.137180430469	1
3	2948	116.999804405496	1
3	2955	117.248705272535	1
3	2970	117.622388043632	1
3	2992	119.024990806319	1
3	3013	120.871306100842	1
3	3029	121.303942291746	1
3	3046	121.707982891085	1
3	3049	121.731392607399	1
3	3074	123.014689401659	1
3	3089	124.192781499912	1
3	3095	124.350863338053	1
3	3124	124.812598188508	1
3	3136	125.217988082523	1
3	3139	125.225851638911	1
3	3153	125.613439433631	1
3	3169	126.078152392566	1
3	3188	127.000518319952	1
3	3207	128.025699058335	1
3	3210	128.067505248262	1
3	3212	128.11117629993	1
3	3239	129.106209797693	1
3	3253	129.933146209135	1
3	3271	130.83011015497	1
3	3285	131.608606015788	1
3	3292	131.895385345775	1
3	3315	132.814523227174	1
3	3318	132.834945934549	1
3	3341	133.560329425693	1
3	3355	134.362123837926	1
3	3358	134.381060174291	1
3	3377	135.005908865383	1
3	3395	135.869133328086	1
3	3410	137.25096905486	1
3	3423	137.722202380607	1
3	3439	138.17397376327	1
3	3450	138.537505630598	1
3	3473	140.425807092063	1
3	3476	140.494188958826	1
3	3484	140.696987651136	1
3	3513	142.368613522753	1
3	3520	142.596222764471	1
3	3532	142.787699454447	1
3	3549	143.509632004905	1
3	3556	143.61140885063	1
3	3577	144.276111146047	1
3	3583	144.443264878888	1
3	3601	145.154004467017	1
3	3607	145.350284009569	1
3	3626	146.584360908463	1
3	3634	146.624714303544	1
3	3653	147.318302357325	1
3	3660	147.501449023868	1
3	3681	148.131850451474	1
3	3698	149.920572567782	1
3	3720	150.939312247248	1
3	3742	153.058081670576	1
3	3763	153.627866684734	1
3	3769	153.799195534496	1
3	3780	153.997491408393	1
3	3783	154.015815787069	1
3	3809	154.986462938942	1
3	3834	157.01636785305	1
3	3845	157.170734228481	1
3	3870	157.808371958574	1
3	3883	158.477532318205	1
3	3900	159.015108880771	1
3	3912	159.437305324753	1
3	3916	159.525365730516	1
3	3926	159.789004010897	1
3	3941	160.076596926064	1
3	3948	160.184818727197	1
3	3960	160.500851163042	1
3	3984	161.694395602735	1
3	3991	161.920932302245	1
3	3994	161.966931793018	1
3	4004	162.09313040599	1
3	4034	162.988279650024	1
3	4044	163.324205285617	1
3	4059	163.956891378434	1
3	4073	164.806187449574	1
3	4083	165.147141317603	1
3	4103	165.895047619336	1
3	4116	166.494982604442	1
3	4128	166.989662198251	1
3	4135	167.172379943489	1
3	4149	167.5620087652	1
3	4166	168.649592501207	1
3	4184	169.518762504075	1
3	4190	169.626891652642	1
3	4201	169.993332586647	1
3	4219	170.470079292641	1
3	4222	170.471535249836	1
3	4233	170.814151825101	1
3	4250	171.130722691797	1
3	4268	171.745883233752	1
3	4271	171.758276003681	1
3	4282	172.113851625273	1
3	4299	172.513331148328	1
3	4321	174.18932432754	1
3	4341	175.569339776568	1
3	4356	176.624832018682	1
3	4368	177.067846583992	1
3	4387	178.326118145579	1
3	4394	178.567552920707	1
3	4397	178.581798840083	1
3	4419	180.3030988272	1
3	4422	180.39665601541	1
3	4435	180.820832079752	1
3	4449	181.17722058555	1
3	4457	181.302504060949	1
3	4472	182.032341061034	1
3	4478	182.163931808193	1
3	4486	182.406227282092	1
3	4501	182.800169683702	1
3	4518	183.25730440059	1
3	4524	183.339821053755	1
3	4527	183.36541567527	1
3	4543	184.096610776139	1
3	4567	184.659193592197	1
3	4597	186.364018325499	1
3	4623	186.992784559552	1
3	4648	187.71522423188	1
3	4657	187.992193815432	1
3	4660	188.003858609018	1
3	4666	188.084687573838	1
3	4686	189.520573729276	1
3	4695	189.816824866109	1
3	4707	190.015236942801	1
3	4735	190.752885324335	1
3	4753	191.674781211107	1
3	4765	192.15757659987	1
3	4772	192.373214863422	1
3	4792	193.555324912904	1
3	4802	193.878994264898	1
3	4817	194.354484594368	1
3	4836	195.693295685176	1
3	4842	195.801084103469	1
3	4861	196.78052231742	1
3	4873	197.273256142659	1
3	4891	198.115335449916	1
3	4894	198.14579636462	1
3	4902	198.37935936703	1
3	4928	199.127517772119	1
3	4941	199.721079909516	1
3	4948	199.844522721704	1
3	4951	199.944430365898	1
4	7	0.005735589651	1
4	14	0.255040613964	1
4	33	0.638337493436	1
4	46	1.01861267591	1
4	62	1.395213794696	1
4	65	1.399378225901	1
4	69	1.478398675955	2
4	77	1.687467622076	1
4	84	1.771771988298	1
4	86	1.779148338008	2
4	96	1.914786704006	3
4	118	3.068340748444	4
4	127	3.366527859708	2
4	135	3.447901033795	2
4	146	3.604735460569	1
4	152	3.686801908444	2
4	156	3.735094130812	3
4	168	4.012289792856	4
4	176	4.245424683726	5
4	192	4.620806807974	6
4	198	4.72115606059	5
4	208	4.929810561191	4
4	250	6.089390637913	1
4	264	6.346970446686	1
4	291	8.005331082799	1
4	304	8.735035824424	1
4	307	8.756771311182	1
4	335	10.648235780047	1
4	348	11.30878680368	1
4	361	11.973818020816	1
4	378	12.441542940604	1
4	381	12.521577505269	1
4	406	13.77714627502	1
4	409	13.857551098459	1
4	432	14.462171289089	1
4	449	16.118775227851	1
4	465	16.555318081127	1
4	478	16.998244780326	1
4	491	17.664898189836	1
4	507	19.243454772314	1
4	518	19.512150559935	1
4	540	20.058322320797	1
4	553	20.710404951503	1
4	570	21.168065323333	1
4	584	22.126291469566	1
4	597	22.687540413583	1
4	607	23.03224674988	1
4	627	23.828783168161	1
4	643	25.380987306096	1
4	654	25.639673554811	1
4	673	26.535246145612	1
4	691	27.523899311071	1
4	713	29.776644751569	1
4	717	29.837324112576	1
4	722	29.939564402869	2
4	725	29.985015525417	3
4	738	30.389942879636	4
4	742	30.428480268769	4
4	761	32.02891107331	5
4	773	32.40030810059	4
4	789	32.976988618984	5
4	795	33.106264833085	4
4	824	34.190904916081	4
4	861	35.617192947859	1
4	882	37.561532808134	1
4	905	39.730197215345	1
4	911	39.843074833572	1
4	940	40.452223971622	1
4	946	40.605423636479	1
4	967	41.084847230711	1
4	982	42.221548390874	1
4	996	43.091330093227	1
4	1015	44.393408159652	1
4	1018	44.419712275651	1
4	1038	45.200694073309	1
4	1050	45.678160246571	1
4	1057	45.912475654574	1
4	1060	45.955063992894	2
4	1073	46.297578380348	3
4	1077	46.393518602294	3
4	1099	46.91216218028	1
4	1113	47.226065126155	1
4	1134	47.603221094294	1
4	1148	48.098672898523	1
4	1159	48.4561937498	1
4	1164	48.539247498266	1
4	1175	48.853799727161	1
4	1196	50.114329632493	1
4	1215	51.238181196403	1
4	1237	53.355662078659	1
4	1243	53.469768049746	1
4	1260	54.93030550159	2
4	1277	55.570344936559	2
4	1286	55.844721219135	1
4	1305	56.513414777696	2
4	1312	56.70127299162	1
4	1342	58.127389134818	1
4	1348	58.336883088731	1
4	1352	58.359022928789	1
4	1386	60.743115695115	1
4	1398	61.316005547291	1
4	1401	61.340093846085	1
4	1417	61.899036968451	2
4	1424	62.00159387754	1
4	1434	62.342228076934	2
4	1446	62.522697446015	3
4	1450	62.55268286207	3
4	1462	62.836778181703	1
4	1465	62.858412143873	2
4	1490	63.474402222671	3
4	1498	63.57657307123	2
4	1502	63.727229844717	2
4	1536	64.597628117393	1
4	1545	64.705075344898	1
4	1548	64.802678702202	2
4	1551	64.878234680303	3
4	1562	64.960381215078	4
4	1567	65.000345697897	4
4	1574	65.239750044489	3
4	1601	65.794935751016	1
4	1616	66.159373988366	1
4	1641	67.281999143433	1
4	1658	67.940049804542	1
4	1665	68.180585325673	1
4	1684	69.068965612403	1
4	1687	69.088436415453	1
4	1693	69.259102415118	1
4	1717	70.089904345302	1
4	1736	71.411082769121	1
4	1746	71.767257631141	1
4	1749	71.779980484075	1
4	1753	71.820616165093	2
4	1766	72.079226197067	1
4	1793	73.363913121976	1
4	1799	73.4863900442	1
4	1821	74.383371985003	1
4	1828	74.614248156529	1
4	1831	74.616764017166	1
4	1847	74.939717956908	1
4	1854	75.074736539827	1
4	1871	75.453924857927	1
4	1889	76.173172934867	1
4	1896	76.467437601357	1
4	1909	76.679354064927	2
4	1915	76.811972370335	1
4	1930	77.249770564798	1
4	1941	77.384059971539	1
4	1944	77.404665865178	1
4	1950	77.55006690675	1
4	1980	78.48481249314	1
4	1993	79.20308634108	1
4	2005	79.604422053614	1
4	2012	79.900165322972	1
4	2026	80.303291735	2
4	2040	80.785545637734	1
4	2060	81.781065338252	1
4	2070	82.156101575983	1
4	2073	82.160599693758	1
4	2086	82.469810270231	1
4	2097	82.695902170789	1
4	2116	83.425830341371	1
4	2133	83.896004787994	1
4	2145	84.342834921457	1
4	2148	84.422553155059	1
4	2156	84.62079520262	1
4	2162	84.708106325822	1
4	2192	86.651545009717	1
4	2195	86.682288352868	1
4	2200	86.82236740559	1
4	2226	87.269890346758	1
4	2232	87.352056330503	1
4	2261	89.164300769262	1
4	2274	89.689185876906	1
4	2287	90.382548617841	1
4	2301	90.754972290349	1
4	2320	91.216920198489	1
4	2326	91.328186925045	1
4	2348	92.181133779264	1
4	2351	92.244801455917	1
4	2381	94.894598351672	1
4	2398	95.321181897241	1
4	2401	95.343421671752	1
4	2406	95.531248798924	2
4	2417	95.713025312009	3
4	2422	95.772843131275	3
4	2445	96.434993149427	3
4	2460	96.805981764087	1
4	2465	96.894875118514	2
4	2484	97.444831951846	3
4	2512	98.365467438744	1
4	2515	98.386757297931	1
4	2517	98.403438502192	2
4	2530	98.784788174041	2
4	2546	99.780798644406	3
4	2549	99.828780976623	3
4	2557	100.069496181495	2
4	2590	100.931315834032	1
4	2605	101.424870884483	1
4	2623	102.205302425154	1
4	2626	102.209324260412	1
4	2631	102.376624216306	1
4	2655	103.29413643136	1
4	2658	103.352609658503	1
4	2685	104.894247903679	1
4	2700	106.264429435212	1
4	2703	106.359685766016	1
4	2717	106.76046633657	1
4	2744	108.92722152847	1
4	2747	109.006057952579	1
4	2766	110.27412990171	2
4	2769	110.339797338888	2
4	2774	110.379087188191	3
4	2789	111.392677571025	4
4	2814	112.115768965231	3
4	2830	112.550171459994	1
4	2844	112.88431940099	1
4	2857	113.050683286168	2
4	2879	113.836478681595	1
4	2892	114.308164393295	1
4	2905	115.020622311182	1
4	2912	115.227786859308	1
4	2935	116.137180430469	1
4	2949	116.999804405496	1
4	2956	117.248705272535	1
4	2971	117.622388043632	1
4	2993	119.024990806319	1
4	3014	120.871306100842	1
4	3030	121.303942291746	1
4	3047	121.707982891085	1
4	3050	121.731392607399	1
4	3075	123.014689401659	1
4	3090	124.192781499912	1
4	3096	124.350863338053	1
4	3125	124.812598188508	1
4	3137	125.217988082523	1
4	3140	125.225851638911	1
4	3154	125.613439433631	2
4	3170	126.078152392566	1
4	3189	127.000518319952	1
4	3208	128.025699058335	1
4	3211	128.067505248262	1
4	3213	128.11117629993	2
4	3240	129.106209797693	1
4	3254	129.933146209135	1
4	3272	130.83011015497	1
4	3286	131.608606015788	1
4	3293	131.895385345775	1
4	3316	132.814523227174	1
4	3319	132.834945934549	1
4	3342	133.560329425693	1
4	3356	134.362123837926	1
4	3359	134.381060174291	1
4	3378	135.005908865383	1
4	3396	135.869133328086	1
4	3411	137.25096905486	1
4	3424	137.722202380607	1
4	3440	138.17397376327	1
4	3451	138.537505630598	1
4	3474	140.425807092063	1
4	3477	140.494188958826	1
4	3485	140.696987651136	1
4	3514	142.368613522753	1
4	3521	142.596222764471	1
4	3533	142.787699454447	1
4	3550	143.509632004905	1
4	3557	143.61140885063	1
4	3578	144.276111146047	1
4	3584	144.443264878888	1
4	3602	145.154004467017	1
4	3608	145.350284009569	1
4	3627	146.584360908463	1
4	3635	146.624714303544	1
4	3654	147.318302357325	1
4	3661	147.501449023868	1
4	3682	148.131850451474	1
4	3699	149.920572567782	1
4	3721	150.939312247248	1
4	3743	153.058081670576	1
4	3764	153.627866684734	1
4	3770	153.799195534496	1
4	3781	153.997491408393	2
4	3784	154.015815787069	2
4	3810	154.986462938942	2
4	3835	157.01636785305	1
4	3846	157.170734228481	1
4	3871	157.808371958574	1
4	3884	158.477532318205	1
4	3901	159.015108880771	1
4	3913	159.437305324753	1
4	3917	159.525365730516	1
4	3927	159.789004010897	1
4	3942	160.076596926064	2
4	3949	160.184818727197	1
4	3961	160.500851163042	1
4	3985	161.694395602735	1
4	3992	161.920932302245	1
4	3995	161.966931793018	2
4	4005	162.09313040599	3
4	4035	162.988279650024	1
4	4045	163.324205285617	1
4	4060	163.956891378434	1
4	4074	164.806187449574	1
4	4084	165.147141317603	1
4	4104	165.895047619336	1
4	4117	166.494982604442	1
4	4129	166.989662198251	1
4	4136	167.172379943489	1
4	4150	167.5620087652	1
4	4167	168.649592501207	1