version 3
run FeedbackVersion-6-20240511-20:48:08-11935
attr configname FeedbackVersion
attr datetime 20240511-20:48:08
attr datetimef 20240511-204808
attr experiment FeedbackVersion
attr inifile omnetpp.ini
attr iterationvars $genInterval=0.4
attr iterationvarsd genInterval=0.4
attr iterationvarsf genInterval=0.4-
attr measurement $genInterval=0.4
attr network NetworkFV
attr processid 11935
attr repetition 0
attr replication #0
attr resultdir results
attr runnumber 6
attr seedset 6
itervar genInterval 0.4
config network NetworkFV
config sim-time-limit 200s
config NetworkFV.nodeTx.gen.generationInterval exponential(0.4)
config NetworkFV.nodeTx.gen.packetByteSize 12500
config NetworkFV.queueOne.bufferSize 200
config NetworkFV.nodeRx.queue.bufferSize 200
config NetworkFV.nodeTx.queue.bufferSize 2000000
config NetworkFV.queueZero.bufferSize 200

vector 0 NetworkFV.nodeRx.queue PacketsLost ETV
vector 1 NetworkFV.nodeRx.queue PacketsAsked ETV
vector 2 NetworkFV.queueOne bufferSize ETV
vector 3 NetworkFV.nodeTx.gen packetGen ETV
vector 4 NetworkFV.nodeTx.queue BufferSize ETV
vector 5 NetworkFV.nodeTx.queue PacketsSent ETV
vector 6 NetworkFV.queueZero bufferSize ETV
vector 7 NetworkFV.nodeRx.queue BufferSize ETV
vector 8 NetworkFV.nodeRx.sink Delay ETV
vector 9 NetworkFV.nodeRx.sink packetUsed ETV
0	1	0	1
0	6	0.2	1
0	7	0.4	1
0	8	0.6	1
0	9	0.8	1
0	16	1	1
0	23	1.5002	1
0	28	1.8004	1
0	32	2.1006	1
0	56	2.701	1
0	57	3.0012	1
0	74	3.3014	1
0	85	3.9018	1
0	86	4.202	1
0	87	4.5022	1
0	88	4.8024	1
0	95	5.1026	1
0	215	8.1046	1
0	293	9.9058	1
0	380	12.3074	1
0	381	12.6076	1
0	382	12.9078	1
0	386	13.208	1
0	400	13.8084	1
0	401	14.1086	1
0	408	14.4088	1
0	421	15.0092	1
0	464	16.5102	1
0	471	16.8104	1
0	488	17.4108	1
0	498	18.0112	1
0	577	20.1126	1
0	594	20.713	1
0	622	21.6136	1
0	673	23.1146	1
0	674	23.4148	1
0	675	23.715	1
0	686	24.0152	1
0	777	26.4168	1
0	778	26.717	1
0	783	27.0172	1
0	784	27.3174	1
0	785	27.6176	1
0	792	27.9178	1
0	840	29.4188	1
0	853	30.0192	1
0	886	30.9198	1
0	912	31.8204	1
0	922	32.4208	1
0	923	32.721	1
0	930	33.0212	1
0	937	33.6216	1
0	944	33.9218	1
0	963	34.222	1
0	983	34.8224	1
0	1011	35.723	1
0	1109	38.1246	1
0	1116	38.725	1
0	1117	39.0252	1
0	1118	39.3254	1
0	1119	39.6256	1
0	1129	39.9258	1
0	1159	40.8264	1
0	1160	41.1266	1
0	1170	41.4268	1
0	1194	42.0272	1
0	1214	42.6276	1
0	1283	44.4288	1
0	1290	44.729	1
0	1307	45.3294	1
0	1387	47.1306	1
0	1411	47.731	1
0	1489	49.8324	1
0	1532	51.3334	1
0	1539	51.6336	1
0	1562	52.5342	1
0	1563	52.8344	1
0	1564	53.1346	1
0	1571	53.4348	1
0	1590	54.3354	1
0	1597	54.6356	1
0	1608	55.236	1
0	1619	55.5362	1
0	1699	57.6376	1
0	1700	57.9378	1
0	1707	58.238	1
0	1730	59.1386	1
0	1731	59.4388	1
0	1732	59.739	1
0	1733	60.0392	1
0	1740	60.3394	1
0	1750	60.9398	1
0	1782	61.8404	1
0	1837	63.0412	1
0	1885	64.242	1
0	1894	64.5422	1
0	2017	67.244	1
0	2063	68.4448	1
0	2074	69.0452	1
0	2075	69.3454	1
0	2088	69.6456	1
0	2188	72.0472	1
0	2277	74.1486	1
0	2289	74.749	1
0	2300	75.0492	1
0	2312	75.6496	1
0	2313	75.9498	1
0	2314	76.25	1
0	2319	76.5502	1
0	2326	76.8504	1
0	2404	78.9518	1
0	2541	82.5542	1
0	2583	83.755	1
0	2605	84.6556	1
0	2618	85.256	1
0	2669	86.757	1
0	2676	87.0572	1
0	2700	87.9578	1
0	2771	90.0592	1
0	2776	90.3594	1
0	2783	90.6596	1
0	2802	91.5602	1
0	2809	91.8604	1
0	2840	93.0612	1
0	2841	93.3614	1
0	2852	93.6616	1
0	2892	94.8624	1
0	2899	95.1626	1
0	2929	96.0632	1
0	2930	96.3634	1
0	2931	96.6636	1
0	2932	96.9638	1
0	2936	97.264	1
0	2982	98.4648	1
0	2983	98.765	1
0	2998	99.0652	1
0	3174	102.9678	1
0	3228	104.4688	1
0	3304	106.5702	1
0	3335	107.4708	1
0	3346	108.0712	1
0	3355	108.3714	1
0	3418	109.8724	1
0	3447	110.773	1
0	3478	111.9738	1
0	3479	112.274	1
0	3484	112.5742	1
0	3491	112.8744	1
0	3504	113.4748	1
0	3555	114.9758	1
0	3556	115.276	1
0	3557	115.5762	1
0	3565	115.8764	1
0	3598	117.0772	1
0	3599	117.3774	1
0	3606	117.6776	1
0	3617	118.278	1
0	3618	118.5782	1
0	3619	118.8784	1
0	3623	119.1786	1
0	3639	119.779	1
0	3646	120.3794	1
0	3651	120.6796	1
0	3655	120.9798	1
0	3692	121.8804	1
0	3760	123.3814	1
0	3809	124.5822	1
0	3867	126.0832	1
0	3874	126.6836	1
0	3878	126.9838	1
0	3913	128.1846	1
0	3967	129.3854	1
0	3983	129.9858	1
0	3984	130.286	1
0	3985	130.5862	1
0	3994	130.8864	1
0	4066	132.6876	1
0	4104	133.8884	1
0	4115	134.1886	1
0	4122	134.789	1
0	4129	135.0892	1
0	4136	135.6896	1
0	4137	135.9898	1
0	4141	136.29	1
0	4247	138.3914	1
0	4303	139.5922	1
0	4350	140.793	1
0	4357	141.3934	1
0	4364	141.6936	1
0	4401	142.5942	1
0	4437	143.795	1
0	4456	144.6956	1
0	4457	144.9958	1
0	4472	145.296	1
0	4544	147.0972	1
0	4545	147.3974	1
0	4546	147.6976	1
0	4559	147.9978	1
0	4749	152.2006	1
0	4753	152.5008	1
0	4820	154.302	1
0	4836	154.9024	1
0	4849	155.5028	1
0	4909	157.304	1
0	4938	158.2046	1
0	4972	159.4054	1
0	5051	161.5068	1
0	5061	162.1072	1
0	5062	162.4074	1
0	5069	162.7076	1
0	5092	163.6082	1
0	5098	163.9084	1
0	5134	165.1092	1
0	5181	166.6102	1
0	5182	166.9104	1
0	5189	167.2106	1
0	5263	169.0118	1
0	5319	170.5128	1
0	5385	172.314	1
0	5392	172.6142	1
0	5469	174.4154	1
0	5484	175.0158	1
0	5488	175.316	1
0	5521	176.5168	1
0	5529	176.817	1
0	5539	177.4174	1
0	5546	177.7176	1
0	5559	178.318	1
0	5584	179.2186	1
0	5655	181.0198	1
0	5662	181.6202	1
0	5666	181.9204	1
0	5676	182.5208	1
0	5677	182.821	1
0	5684	183.1212	1
0	5716	184.0218	1
0	5818	186.1232	1
0	5838	187.0238	1
0	5845	187.324	1
0	5905	188.825	1
0	5949	190.326	1
0	5976	190.9264	1
0	6007	191.827	1
0	6019	192.4274	1
0	6020	192.7276	1
0	6027	193.0278	1
0	6121	195.4294	1
0	6125	195.7296	1
0	6189	197.5308	1
0	6196	197.831	1
0	6212	198.4314	1
0	6238	199.332	1
1	1	0	2
1	23	1.5002	1
1	43	2.372242711789	0
1	49	2.4008	1
1	76	3.316266061121	2
1	111	5.470963783001	3
1	149	6.37632559335	5
1	203	7.670822391837	7
1	274	9.585371481721	11
1	391	13.505259562799	17
1	471	16.8104	8
1	559	19.696885886673	8
1	664	22.684674306346	12
1	778	26.717	6
1	853	30.0192	2
1	871	30.455444774353	2
1	900	31.470163546767	3
1	944	33.9218	1
1	955	34.072165545668	1
1	965	34.272165545668	2
1	999	35.135095316535	3
1	1035	36.35135813123	5
1	1094	37.674051732618	8
1	1129	39.9258	4
1	1174	41.456785845363	4
1	1223	42.865649903257	6
1	1292	44.860428244927	9
1	1396	47.405118644826	13
1	1553	52.054664848584	20
1	1597	54.6356	10
1	1709	58.278678778173	10
1	1750	60.9398	5
1	1811	62.451861083941	5
1	1871	63.646607079284	7
1	1946	65.729885993405	11
1	2065	68.456535483514	17
1	2260	73.803836140123	25
1	2314	76.25	12
1	2457	80.372572653855	12
1	2593	84.075562682416	19
1	2771	90.0592	9
1	2841	93.3614	3
1	2883	94.447890271375	3
1	2920	95.677787073646	4
1	2973	98.068077688066	7
1	3055	100.303943659895	10
1	3155	102.544745917569	16
1	3337	107.558840963588	24
1	3479	112.274	12
1	3557	115.5762	4
1	3608	117.854197113176	4
1	3646	120.3794	2
1	3672	121.492252899396	2
1	3705	122.180705829645	3
1	3741	122.99471635825	4
1	3794	124.048068452377	6
1	3852	125.699634131927	10
1	3974	129.659821075376	15
1	4104	133.8884	7
1	4141	136.29	2
1	4161	136.783840438111	2
1	4195	137.315300491425	3
1	4226	138.076465899382	5
1	4286	139.275791900936	8
1	4381	142.044316461981	13
1	4535	146.63657808106	19
1	4740	151.804366173655	29
1	4909	157.304	14
1	5069	162.7076	4
1	5116	164.328165015833	4
1	5160	165.792017755892	7
1	5244	168.55996514105	11
1	5364	171.586320205415	16
1	5521	176.5168	8
1	5620	179.947423707354	8
1	5684	183.1212	4
1	5731	184.27764950655	4
1	5774	185.133172113208	6
1	5847	187.394194799672	9
1	5957	190.616384358037	13
1	6112	194.854995959848	20
1	6238	199.332	10
2	2	0	1
2	24	1.5002	1
2	45	2.372242711789	1
2	50	2.4008	1
2	78	3.316266061121	1
2	113	5.470963783001	1
2	151	6.37632559335	1
2	205	7.670822391837	1
2	276	9.585371481721	1
2	393	13.505259562799	1
2	472	16.8104	1
2	561	19.696885886673	1
2	666	22.684674306346	1
2	779	26.717	1
2	854	30.0192	1
2	873	30.455444774353	1
2	902	31.470163546767	1
2	945	33.9218	1
2	957	34.072165545668	1
2	967	34.272165545668	1
2	1001	35.135095316535	1
2	1037	36.35135813123	1
2	1096	37.674051732618	1
2	1130	39.9258	1
2	1176	41.456785845363	1
2	1225	42.865649903257	1
2	1294	44.860428244927	1
2	1398	47.405118644826	1
2	1555	52.054664848584	1
2	1598	54.6356	1
2	1711	58.278678778173	1
2	1751	60.9398	1
2	1813	62.451861083941	1
2	1873	63.646607079284	1
2	1948	65.729885993405	1
2	2067	68.456535483514	1
2	2262	73.803836140123	1
2	2315	76.25	1
2	2459	80.372572653855	1
2	2595	84.075562682416	1
2	2772	90.0592	1
2	2842	93.3614	1
2	2885	94.447890271375	1
2	2922	95.677787073646	1
2	2975	98.068077688066	1
2	3057	100.303943659895	1
2	3157	102.544745917569	1
2	3339	107.558840963588	1
2	3480	112.274	1
2	3558	115.5762	1
2	3610	117.854197113176	1
2	3647	120.3794	1
2	3674	121.492252899396	1
2	3707	122.180705829645	1
2	3743	122.99471635825	1
2	3796	124.048068452377	1
2	3854	125.699634131927	1
2	3976	129.659821075376	1
2	4105	133.8884	1
2	4142	136.29	1
2	4163	136.783840438111	1
2	4197	137.315300491425	1
2	4228	138.076465899382	1
2	4288	139.275791900936	1
2	4383	142.044316461981	1
2	4537	146.63657808106	1
2	4742	151.804366173655	1
2	4910	157.304	1
2	5070	162.7076	1
2	5118	164.328165015833	1
2	5162	165.792017755892	1
2	5246	168.55996514105	1
2	5366	171.586320205415	1
2	5522	176.5168	1
2	5622	179.947423707354	1
2	5685	183.1212	1
2	5733	184.27764950655	1
2	5776	185.133172113208	1
2	5849	187.394194799672	1
2	5959	190.616384358037	1
2	6114	194.854995959848	1
2	6239	199.332	1
3	10	0.893448103126	1
3	29	2.072042711789	1
3	36	2.233417461	1
3	39	2.327405932924	1
3	58	3.016066061121	1
3	61	3.042630803465	1
3	63	3.059667154385	1
3	68	3.244550807095	1
3	71	3.29011253847	1
3	89	4.970763783001	1
3	101	5.332362497513	1
3	106	5.374271967556	1
3	119	5.67612559335	1
3	134	6.05120654375	1
3	142	6.268275796548	1
3	157	6.570622391837	1
3	164	6.734055085235	1
3	178	6.997810634845	1
3	193	7.387505106344	1
3	212	8.085171481721	1
3	221	8.315773521834	1
3	248	8.878393520259	1
3	268	9.410937402142	1
3	281	9.608639916801	1
3	291	9.900594602178	1
3	303	10.010271349506	1
3	318	10.356186008473	1
3	323	10.423844746057	1
3	341	10.838500044591	1
3	360	11.353918510787	1
3	383	13.205059562799	1
3	402	14.187332602017	1
3	415	14.872936979291	1
3	422	15.129178718142	1
3	434	15.342407848503	1
3	451	15.796315791807	1
3	465	16.632169603195	1
3	482	17.279401468182	1
3	495	17.973763605817	1
3	502	18.218895562531	1
3	505	18.241301332666	1
3	524	18.689441690646	1
3	541	19.196685886673	1
3	545	19.260680479076	1
3	568	19.908820493004	1
3	574	20.085523985928	1
3	591	20.618863051989	1
3	601	21.002204919727	1
3	616	21.49615886774	1
3	623	21.729883515605	1
3	638	22.04131051997	1
3	650	22.384474306346	1
3	653	22.437806494926	1
3	657	22.473269593922	1
3	676	23.737958788614	1
3	682	23.839030784408	1
3	692	24.045537814931	1
3	698	24.143841881387	1
3	705	24.241665964929	1
3	731	24.940209102455	1
3	750	25.445522530906	1
3	759	25.692175836766	1
3	786	27.752647985214	1
3	796	28.06824027448	1
3	804	28.186318529676	1
3	821	28.806050503197	1
3	834	29.251105894698	1
3	847	29.789721338043	1
3	861	30.155244774353	1
3	880	30.664570457319	1
3	892	31.169963546767	1
3	909	31.809414704437	1
3	924	32.917488363115	1
3	938	33.771965545668	1
3	949	33.945393969227	1
3	974	34.634895316535	1
3	980	34.751911043534	1
3	986	34.897990553726	1
3	994	35.103972546069	1
3	1008	35.65115813123	1
3	1028	36.200131622721	1
3	1041	36.396684144832	1
3	1060	36.911728193466	1
3	1069	37.165428755651	1
3	1081	37.373851732618	1
3	1103	37.869062682316	1
3	1120	39.68706352851	1
3	1126	39.868795412679	1
3	1141	40.108293486305	1
3	1161	41.156585845363	1
3	1167	41.343825418174	1
3	1188	41.870812093668	1
3	1201	42.365449903257	1
3	1207	42.477249279608	1
3	1210	42.51167229077	1
3	1232	42.967026711	1
3	1243	43.170273707694	1
3	1246	43.194844716823	1
3	1270	43.784250162144	1
3	1284	44.560228244927	1
3	1301	45.139072513158	1
3	1308	45.409351198469	1
3	1319	45.542902693143	1
3	1330	45.84712609909	1
3	1337	45.931188497129	1
3	1342	45.996976103041	1
3	1356	46.251872653239	1
3	1378	46.904918644826	1
3	1384	47.067989289736	1
3	1403	47.448558601082	1
3	1417	47.979369052637	1
3	1424	48.09402978232	1
3	1427	48.177877506787	1
3	1437	48.379366538277	1
3	1447	48.540217258881	1
3	1460	48.86867857187	1
3	1483	49.612424401932	1
3	1493	49.937046356542	1
3	1505	50.318876106972	1
3	1517	50.640188924684	1
3	1533	51.506237768208	1
3	1540	51.754464848584	1
3	1565	53.255670236856	1
3	1577	53.699931448189	1
3	1591	54.425309230288	1
3	1609	55.285869763754	1
3	1612	55.365652597661	1
3	1623	55.626995802367	1
3	1639	56.012359756529	1
3	1648	56.227569729035	1
3	1660	56.48615828454	1
3	1669	56.601972162989	1
3	1680	56.809083156551	1
3	1701	57.978478778173	1
3	1717	58.520216757866	1
3	1734	60.152154452452	1
3	1747	60.8514811157	1
3	1761	61.172536343825	1
3	1776	61.632367857209	1
3	1786	61.951661083941	1
3	1789	62.011651596397	1
3	1802	62.261033366884	1
3	1823	62.746407079284	1
3	1831	62.941175432659	1
3	1834	62.965431129843	1
3	1846	63.174797868258	1
3	1852	63.260404737306	1
3	1861	63.39467751198	1
3	1886	64.429685993405	1
3	1889	64.430027130951	1
3	1897	64.637773564858	1
3	1909	64.865870672952	1
3	1915	64.930075065055	1
3	1929	65.28412421477	1
3	1952	65.742767107144	1
3	1965	66.038679646113	1
3	1969	66.110085768732	1
3	1990	66.567343926462	1
3	2005	66.985249605811	1
3	2008	67.022183169046	1
3	2013	67.138117802583	1
3	2028	67.534748022352	1
3	2032	67.55165035504	1
3	2055	68.156335483514	1
3	2076	69.431311545886	1
3	2079	69.518903486661	1
3	2084	69.546309458498	1
3	2094	69.80930287072	1
3	2107	70.097050207617	1
3	2118	70.285891972194	1
3	2128	70.45288473701	1
3	2131	70.472427475267	1
3	2149	70.903962892667	1
3	2159	71.056044056313	1
3	2182	71.800301003091	1
3	2194	72.21928693575	1
3	2204	72.589688592413	1
3	2213	72.708195256831	1
3	2224	73.062125349313	1
3	2236	73.303636140123	1
3	2239	73.353423138875	1
3	2247	73.409313249151	1
3	2269	73.905084622763	1
3	2290	74.753081387238	1
3	2293	74.844606854044	1
3	2320	76.734725205463	1
3	2327	77.004351597586	1
3	2333	77.044434324571	1
3	2335	77.059352497988	1
3	2358	77.665987014546	1
3	2370	77.817557324154	1
3	2378	77.971000285951	1
3	2398	78.766198825795	1
3	2405	78.995129436332	1
3	2420	79.322130097259	1
3	2434	79.755885295087	1
3	2444	80.072372653855	1
3	2453	80.228198689098	1
3	2463	80.411634083981	1
3	2466	80.42156082726	1
3	2493	81.126029688684	1
3	2507	81.610283855369	1
3	2514	81.73966307863	1
3	2531	82.377098712991	1
3	2534	82.430812339834	1
3	2539	82.483194007148	1
3	2551	82.814122502305	1
3	2574	83.575362682416	1
3	2580	83.699791551646	1
3	2602	84.650157381489	1
3	2615	85.246881439101	1
3	2619	85.335101362154	1
3	2624	85.414192257171	1
3	2628	85.450643777539	1
3	2651	86.062260352588	1
3	2670	86.871519269117	1
3	2680	87.246112891731	1
3	2695	87.920506221185	1
3	2698	87.937564381296	1
3	2704	88.082459565639	1
3	2716	88.412012680978	1
3	2722	88.422409186219	1
3	2740	88.863623283992	1
3	2758	89.433701640783	1
3	2777	90.548490972016	1
3	2789	90.955805534891	1
3	2803	91.572528192519	1
3	2813	91.90496856	1
3	2827	92.460175652502	1
3	2846	93.421118005438	1
3	2853	93.696024584478	1
3	2870	94.147690271375	1
3	2873	94.165159234669	1
3	2879	94.298568949439	1
3	2893	94.977587073646	1
3	2902	95.216718790571	1
3	2904	95.222205747262	1
3	2933	97.167877688066	1
3	2947	97.487317377732	1
3	2955	97.60405095571	1
3	2967	97.938670275877	1
3	2984	98.803743659895	1
3	2987	98.851670952232	1
3	2994	99.020720037482	1
3	2996	99.046653326324	1
3	3004	99.179465994806	1
3	3025	99.521472966865	1
3	3042	100.005247826734	1
3	3051	100.271060261709	1
3	3063	100.444545917569	1
3	3070	100.588029350053	1
3	3072	100.607064694139	1
3	3074	100.623308316933	1
3	3083	100.818093758378	1
3	3105	101.220026851355	1
3	3128	101.844433410707	1
3	3133	101.897542392316	1
3	3164	102.854129679025	1
3	3167	102.858799166068	1
3	3169	102.887378143952	1
3	3175	103.016932148593	1
3	3214	104.184018669793	1
3	3220	104.327572789023	1
3	3225	104.458958434651	1
3	3232	104.538493781877	1
3	3257	105.221578977704	1
3	3260	105.249309562201	1
3	3262	105.261849030065	1
3	3283	105.866109721219	1
3	3301	106.558121787586	1
3	3308	106.762951331286	1
3	3326	107.258640963588	1
3	3332	107.371487914801	1
3	3347	108.133146294166	1
3	3356	108.429889874138	1
3	3362	108.447730554846	1
3	3368	108.565471297752	1
3	3383	108.848248709705	1
3	3408	109.612218602434	1
3	3411	109.705175584916	1
3	3422	109.969450349527	1
3	3441	110.494897534982	1
3	3451	110.885260697494	1
3	3465	111.299284798531	1
3	3485	112.745127675036	1
3	3498	113.358422264748	1
3	3505	113.533667711203	1
3	3513	113.757618865756	1
3	3524	113.85939290652	1
3	3537	114.257334051036	1
3	3562	115.797212681212	1
3	3569	115.971635110877	1
3	3583	116.325430268311	1
3	3600	117.553997113176	1
3	3620	119.153932154585	1
3	3631	119.537019121046	1
3	3652	120.922240730021	1
3	3659	121.192052899396	1
3	3681	121.680505829645	1
3	3687	121.798997366774	1
3	3690	121.806827837673	1
3	3695	121.914959390082	1
3	3713	122.29451635825	1
3	3722	122.589452888468	1
3	3731	122.704290676989	1
3	3750	123.147868452377	1
3	3753	123.20331391948	1
3	3766	123.522458015038	1
3	3776	123.704905331178	1
3	3784	123.89701473374	1
3	3790	123.986318908437	1
3	3803	124.399434131927	1
3	3827	124.981231574923	1
3	3861	125.893469488036	1
3	3875	126.981809203122	1
3	3882	127.273575020713	1
3	3889	127.284277901139	1
3	3910	128.13647890578	1
3	3917	128.254798803871	1
3	3920	128.340902914352	1
3	3929	128.464709355551	1
3	3954	129.159621075376	1
3	3957	129.221034357761	1
3	3964	129.377658282968	1
3	3986	130.588129150875	1
3	4000	131.060653363518	1
3	4009	131.174454587913	1
3	4026	131.659080016908	1
3	4035	131.835218285216	1
3	4052	132.459696954916	1
3	4055	132.479767821588	1
3	4060	132.574349193516	1
3	4064	132.683141281058	1
3	4082	133.111122712128	1
3	4109	133.968756558855	1
3	4123	134.94910545608	1
3	4138	136.283640438111	1
3	4149	136.388222685371	1
3	4167	136.815100491425	1
3	4170	136.838759838763	1
3	4178	136.979640172701	1
3	4185	137.116862424201	1
3	4188	137.14133012002	1
3	4201	137.376265899382	1
3	4233	138.175591900936	1
3	4238	138.178772922151	1
3	4240	138.246207082975	1
3	4263	138.837035273188	1
3	4271	138.962672028848	1
3	4277	139.066568437633	1
3	4295	139.384378821353	1
3	4311	139.862589780963	1
3	4320	139.978879089993	1
3	4344	140.683994943604	1
3	4358	141.428897125292	1
3	4368	141.744116461981	1
3	4377	142.023151178848	1
3	4390	142.302960857826	1
3	4398	142.568155037939	1
3	4405	142.631328333448	1
3	4431	143.57397012682	1
3	4443	144.047182057575	1
3	4458	145.034488672022	1
3	4464	145.146686996899	1
3	4469	145.257319338663	1
3	4480	145.479771113812	1
3	4483	145.48734920332	1
3	4500	145.892561731259	1
3	4520	146.33637808106	1
3	4523	146.388598467841	1
3	4531	146.514791599786	1
3	4547	147.742749510869	1
3	4550	147.748513422522	1
3	4557	147.967427176764	1
3	4560	148.008298031858	1
3	4576	148.247051383303	1
3	4588	148.46414147325	1
3	4595	148.564587818961	1
3	4599	148.615970441581	1
3	4606	148.678502578883	1
3	4612	148.771320293822	1
3	4633	149.317441130744	1
3	4655	149.864124834049	1
3	4679	150.628060541527	1
3	4691	150.871353604409	1
3	4703	151.104166173655	1
3	4706	151.152360182488	1
3	4716	151.273073186536	1
3	4721	151.370066770907	1
3	4728	151.410948184407	1
3	4750	152.476044642512	1
3	4754	152.501502723317	1
3	4756	152.504673155195	1
3	4758	152.561191938956	1
3	4775	152.971937677495	1
3	4817	154.208373278086	1
3	4830	154.622248205232	1
3	4843	155.240550302377	1
3	4855	155.696638245547	1
3	4862	155.851648056291	1
3	4876	156.196893531361	1
3	4885	156.422187265217	1
3	4903	157.0361573841	1
3	4914	157.334048112292	1
3	4932	158.024093533066	1
3	4942	158.356832448168	1
3	4956	158.773153991685	1
3	4969	159.403650143764	1
3	4973	159.482854770587	1
3	4978	159.52952821172	1
3	4996	160.047777827415	1
3	5007	160.288063790312	1
3	5017	160.422091847502	1
3	5030	160.744769890149	1
3	5048	161.481510986866	1
3	5063	162.459320428665	1
3	5077	162.797063968124	1
3	5093	163.827965015833	1
3	5096	163.863614510136	1
3	5104	164.124384980854	1
3	5131	165.091817755892	1
3	5135	165.139000962608	1
3	5142	165.387298759466	1
3	5166	165.871551056059	1
3	5183	167.01675745631	1
3	5190	167.298353588089	1
3	5193	167.314887557663	1
3	5198	167.359531565851	1
3	5203	167.405002889628	1
3	5234	168.25976514105	1
3	5253	168.82354054023	1
3	5256	168.851337263316	1
3	5258	168.868407408278	1
3	5266	169.097816283934	1
3	5281	169.338089539787	1
3	5297	169.80880575553	1
3	5316	170.486120205415	1
3	5320	170.584841173116	1
3	5330	170.802179142376	1
3	5334	170.858619000276	1
3	5340	170.942887224395	1
3	5370	171.648923954937	1
3	5386	172.390575197793	1
3	5396	172.713125512117	1
3	5399	172.758503341327	1
3	5406	172.860193065171	1
3	5411	172.996074455935	1
3	5428	173.32584931017	1
3	5434	173.423682396274	1
3	5460	174.123967256089	1
3	5466	174.373615168716	1
3	5485	175.306767863598	1
3	5492	175.460791979602	1
3	5506	175.856153531175	1
3	5526	176.815326004806	1
3	5540	177.447836871123	1
3	5553	178.063852692069	1
3	5565	178.542995101944	1
3	5578	179.032326251262	1
3	5585	179.247223707354	1
3	5588	179.307507959945	1
3	5596	179.419444195095	1
3	5613	179.797960024714	1
3	5628	180.115040910258	1
3	5649	180.877895637426	1
3	5663	181.913252434891	1
3	5678	182.942844457286	1
3	5692	183.299097324286	1
3	5707	183.733230373983	1
3	5713	183.97744950655	1
3	5723	184.097340289001	1
3	5740	184.432972113208	1
3	5749	184.562599721327	1
3	5760	184.787638718844	1
3	5780	185.191306063498	1
3	5789	185.312474835585	1
3	5806	185.828005602427	1
3	5809	185.861442581021	1
3	5814	186.007318081689	1
3	5839	187.093994799672	1
3	5855	187.547229821973	1
3	5862	187.651540846162	1
3	5871	187.934028502319	1
3	5874	187.939455048798	1
3	5899	188.646795098448	1
3	5906	188.865385119174	1
3	5923	189.325302803464	1
3	5926	189.352556016448	1
3	5946	190.316184358037	1
3	5953	190.611920439295	1
3	5964	190.663026343556	1
3	5972	190.858293003225	1
3	5996	191.590658985363	1
3	6002	191.697431638651	1
3	6021	192.882117461016	1
3	6031	193.213825360289	1
3	6043	193.554795959848	1
3	6049	193.651410324509	1
3	6051	193.653071782075	1
3	6056	193.721438841382	1
3	6058	193.735073517768	1
3	6077	194.138030261727	1
3	6088	194.350758735093	1
3	6096	194.494595404979	1
3	6105	194.739795776724	1
3	6122	195.641492800123	1
3	6131	195.901261159877	1
3	6150	196.322240627832	1
3	6170	196.779794361951	1
3	6190	197.696255013621	1
3	6203	198.258676633421	1
3	6209	198.364762854745	1
3	6227	199.052429865912	1
3	6233	199.172354445432	1
3	6243	199.342402745061	1
3	6264	199.925782339005	1
4	11	0.893448103126	1
4	30	2.072042711789	1
4	37	2.233417461	1
4	40	2.327405932924	2
4	59	3.016066061121	3
4	62	3.042630803465	3
4	64	3.059667154385	4
4	69	3.244550807095	5
4	72	3.29011253847	6
4	90	4.970763783001	7
4	102	5.332362497513	6
4	107	5.374271967556	7
4	120	5.67612559335	8
4	135	6.05120654375	6
4	143	6.268275796548	7
4	158	6.570622391837	8
4	165	6.734055085235	7
4	179	6.997810634845	5
4	194	7.387505106344	6
4	213	8.085171481721	7
4	222	8.315773521834	5
4	249	8.878393520259	2
4	269	9.410937402142	3
4	282	9.608639916801	4
4	292	9.900594602178	2
4	304	10.010271349506	1
4	319	10.356186008473	1
4	324	10.423844746057	1
4	342	10.838500044591	1
4	361	11.353918510787	1
4	384	13.205059562799	1
4	403	14.187332602017	1
4	416	14.872936979291	1
4	423	15.129178718142	1
4	435	15.342407848503	1
4	452	15.796315791807	1
4	466	16.632169603195	1
4	483	17.279401468182	1
4	496	17.973763605817	1
4	503	18.218895562531	1
4	506	18.241301332666	1
4	525	18.689441690646	1
4	542	19.196685886673	1
4	546	19.260680479076	1
4	569	19.908820493004	1
4	575	20.085523985928	1
4	592	20.618863051989	1
4	602	21.002204919727	1
4	617	21.49615886774	1
4	624	21.729883515605	1
4	639	22.04131051997	1
4	651	22.384474306346	1
4	654	22.437806494926	1
4	658	22.473269593922	2
4	677	23.737958788614	3
4	683	23.839030784408	2
4	693	24.045537814931	1
4	699	24.143841881387	1
4	706	24.241665964929	1
4	732	24.940209102455	1
4	751	25.445522530906	1
4	760	25.692175836766	1
4	787	27.752647985214	1
4	797	28.06824027448	1
4	805	28.186318529676	1
4	822	28.806050503197	1
4	835	29.251105894698	1
4	848	29.789721338043	1
4	862	30.155244774353	1
4	881	30.664570457319	1
4	893	31.169963546767	1
4	910	31.809414704437	1
4	925	32.917488363115	1
4	939	33.771965545668	1
4	950	33.945393969227	1
4	975	34.634895316535	1
4	981	34.751911043534	1
4	987	34.897990553726	1
4	995	35.103972546069	2
4	1009	35.65115813123	3
4	1029	36.200131622721	1
4	1042	36.396684144832	2
4	1061	36.911728193466	1
4	1070	37.165428755651	1
4	1082	37.373851732618	1
4	1104	37.869062682316	1
4	1121	39.68706352851	1
4	1127	39.868795412679	1
4	1142	40.108293486305	1
4	1162	41.156585845363	1
4	1168	41.343825418174	1
4	1189	41.870812093668	1
4	1202	42.365449903257	1
4	1208	42.477249279608	1
4	1211	42.51167229077	1
4	1233	42.967026711	1
4	1244	43.170273707694	1
4	1247	43.194844716823	1
4	1271	43.784250162144	1
4	1285	44.560228244927	1
4	1302	45.139072513158	1
4	1309	45.409351198469	1
4	1320	45.542902693143	1
4	1331	45.84712609909	1
4	1338	45.931188497129	1
4	1343	45.996976103041	1
4	1357	46.251872653239	1
4	1379	46.904918644826	1
4	1385	47.067989289736	1
4	1404	47.448558601082	1
4	1418	47.979369052637	1
4	1425	48.09402978232	1
4	1428	48.177877506787	1
4	1438	48.379366538277	1
4	1448	48.540217258881	1
4	1461	48.86867857187	1
4	1484	49.612424401932	1
4	1494	49.937046356542	1
4	1506	50.318876106972	1
4	1518	50.640188924684	1
4	1534	51.506237768208	1
4	1541	51.754464848584	1
4	1566	53.255670236856	1
4	1578	53.699931448189	1
4	1592	54.425309230288	1
4	1610	55.285869763754	1
4	1613	55.365652597661	1
4	1624	55.626995802367	1
4	1640	56.012359756529	1
4	1649	56.227569729035	1
4	1661	56.48615828454	1
4	1670	56.601972162989	1
4	1681	56.809083156551	1
4	1702	57.978478778173	1
4	1718	58.520216757866	1
4	1735	60.152154452452	1
4	1748	60.8514811157	1
4	1762	61.172536343825	1
4	1777	61.632367857209	1
4	1787	61.951661083941	1
4	1790	62.011651596397	1
4	1803	62.261033366884	1
4	1824	62.746407079284	1
4	1832	62.941175432659	1
4	1835	62.965431129843	1
4	1847	63.174797868258	1
4	1853	63.260404737306	1
4	1862	63.39467751198	1
4	1887	64.429685993405	2
4	1890	64.430027130951	2
4	1898	64.637773564858	1
4	1910	64.865870672952	1
4	1916	64.930075065055	1
4	1930	65.28412421477	1
4	1953	65.742767107144	1
4	1966	66.038679646113	1
4	1970	66.110085768732	1
4	1991	66.567343926462	1
4	2006	66.985249605811	1
4	2009	67.022183169046	1
4	2014	67.138117802583	1
4	2029	67.534748022352	1
4	2033	67.55165035504	1
4	2056	68.156335483514	1
4	2077	69.431311545886	1
4	2080	69.518903486661	1
4	2085	69.546309458498	1
4	2095	69.80930287072	1
4	2108	70.097050207617	1
4	2119	70.285891972194	1
4	2129	70.45288473701	1
4	2132	70.472427475267	1
4	2150	70.903962892667	1
4	2160	71.056044056313	1
4	2183	71.800301003091	1
4	2195	72.21928693575	1
4	2205	72.589688592413	1
4	2214	72.708195256831	1
4	2225	73.062125349313	1
4	2237	73.303636140123	1
4	2240	73.353423138875	1
4	2248	73.409313249151	1
4	2270	73.905084622763	2
4	2291	74.753081387238	1
4	2294	74.844606854044	1
4	2321	76.734725205463	1
4	2328	77.004351597586	1
4	2334	77.044434324571	1
4	2336	77.059352497988	2
4	2359	77.665987014546	1
4	2371	77.817557324154	1
4	2379	77.971000285951	1
4	2399	78.766198825795	1
4	2406	78.995129436332	1
4	2421	79.322130097259	1
4	2435	79.755885295087	1
4	2445	80.072372653855	1
4	2454	80.228198689098	1
4	2464	80.411634083981	2
4	2467	80.42156082726	2
4	2494	81.126029688684	1
4	2508	81.610283855369	1
4	2515	81.73966307863	1
4	2532	82.377098712991	1
4	2535	82.430812339834	1
4	2540	82.483194007148	1
4	2552	82.814122502305	1
4	2575	83.575362682416	1
4	2581	83.699791551646	1
4	2603	84.650157381489	1
4	2616	85.246881439101	1
4	2620	85.335101362154	1
4	2625	85.414192257171	1
4	2629	85.450643777539	1
4	2652	86.062260352588	1
4	2671	86.871519269117	1
4	2681	87.246112891731	1
4	2696	87.920506221185	1
4	2699	87.937564381296	1
4	2705	88.082459565639	1
4	2717	88.412012680978	1
4	2723	88.422409186219	1
4	2741	88.863623283992	1
4	2759	89.433701640783	1
4	2778	90.548490972016	1
4	2790	90.955805534891	1
4	2804	91.572528192519	1
4	2814	91.90496856	1
4	2828	92.460175652502	1
4	2847	93.421118005438	1
4	2854	93.696024584478	1
4	2871	94.147690271375	1
4	2874	94.165159234669	1
4	2880	94.298568949439	2
4	2894	94.977587073646	3
4	2903	95.216718790571	1
4	2905	95.222205747262	2
4	2934	97.167877688066	3
4	2948	97.487317377732	1
4	2956	97.60405095571	1
4	2968	97.938670275877	2
4	2985	98.803743659895	3
4	2988	98.851670952232	3
4	2995	99.020720037482	2
4	2997	99.046653326324	3
4	3005	99.179465994806	3
4	3026	99.521472966865	1
4	3043	100.005247826734	2
4	3052	100.271060261709	3
4	3064	100.444545917569	4
4	3071	100.588029350053	3
4	3073	100.607064694139	4
4	3075	100.623308316933	5
4	3084	100.818093758378	4
4	3106	101.220026851355	1
4	3129	101.844433410707	1
4	3134	101.897542392316	1
4	3165	102.854129679025	2
4	3168	102.858799166068	2
4	3170	102.887378143952	3
4	3176	103.016932148593	3
4	3215	104.184018669793	1
4	3221	104.327572789023	1
4	3226	104.458958434651	1
4	3233	104.538493781877	1
4	3258	105.221578977704	1
4	3261	105.249309562201	1
4	3263	105.261849030065	2
4	3284	105.866109721219	1
4	3302	106.558121787586	1
4	3309	106.762951331286	1
4	3327	107.258640963588	1
4	3333	107.371487914801	1
4	3348	108.133146294166	2
4	3357	108.429889874138	1
4	3363	108.447730554846	1
4	3369	108.565471297752	1
4	3384	108.848248709705	1
4	3409	109.612218602434	1
4	3412	109.705175584916	1
4	3423	109.969450349527	1
4	3442	110.494897534982	1
4	3452	110.885260697494	1
4	3466	111.299284798531	1
4	3486	112.745127675036	1
4	3499	113.358422264748	1
4	3506	113.533667711203	1
4	3514	113.757618865756	1
4	3525	113.85939290652	1
4	3538	114.257334051036	1
4	3563	115.797212681212	1
4	3570	115.971635110877	1
4	3584	116.325430268311	1
4	3601	117.553997113176	1
4	3621	119.153932154585	1
4	3632	119.537019121046	1
4	3653	120.922240730021	1
4	3660	121.192052899396	1
4	3682	121.680505829645	1
4	3688	121.798997366774	1
4	3691	121.806827837673	1
4	3696	121.914959390082	2
4	3714	122.29451635825	3
4	3723	122.589452888468	1
4	3732	122.704290676989	2
4	3751	123.147868452377	3
4	3754	123.20331391948	3
4	3767	123.522458015038	1
4	3777	123.704905331178	2
4	3785	123.89701473374	3
4	3791	123.986318908437	4
4	3804	124.399434131927	5