version 3
run FeedbackVersion-16-20240511-20:48:08-11935
attr configname FeedbackVersion
attr datetime 20240511-20:48:08
attr datetimef 20240511-204808
attr experiment FeedbackVersion
attr inifile omnetpp.ini
attr iterationvars $genInterval=0.9
attr iterationvarsd genInterval=0.9
attr iterationvarsf genInterval=0.9-
attr measurement $genInterval=0.9
attr network NetworkFV
attr processid 11935
attr repetition 0
attr replication #0
attr resultdir results
attr runnumber 16
attr seedset 16
itervar genInterval 0.9
config network NetworkFV
config sim-time-limit 200s
config NetworkFV.nodeTx.gen.generationInterval exponential(0.9)
config NetworkFV.nodeTx.gen.packetByteSize 12500
config NetworkFV.queueOne.bufferSize 200
config NetworkFV.nodeRx.queue.bufferSize 200
config NetworkFV.nodeTx.queue.bufferSize 2000000
config NetworkFV.queueZero.bufferSize 200

vector 0 NetworkFV.nodeRx.queue PacketsLost ETV
vector 1 NetworkFV.nodeRx.queue PacketsAsked ETV
vector 2 NetworkFV.queueOne bufferSize ETV
vector 3 NetworkFV.nodeTx.gen packetGen ETV
vector 4 NetworkFV.nodeTx.queue BufferSize ETV
vector 5 NetworkFV.nodeTx.queue PacketsSent ETV
vector 6 NetworkFV.queueZero bufferSize ETV
vector 7 NetworkFV.nodeRx.queue BufferSize ETV
vector 8 NetworkFV.nodeRx.sink Delay ETV
vector 9 NetworkFV.nodeRx.sink packetUsed ETV
0	1	0	1
0	6	0.2	1
0	13	0.4	1
0	36	1.2004	1
0	47	1.5006	1
0	66	2.101	1
0	115	3.602	1
0	116	3.9022	1
0	123	4.2024	1
0	159	5.4032	1
0	166	5.7034	1
0	173	6.3038	1
0	187	6.604	1
0	202	7.5046	1
0	203	7.8048	1
0	204	8.105	1
0	208	8.4052	1
0	224	9.0056	1
0	225	9.3058	1
0	226	9.606	1
0	227	9.9062	1
0	231	10.2064	1
0	249	11.107	1
0	254	11.4072	1
0	255	11.7074	1
0	256	12.0076	1
0	257	12.3078	1
0	258	12.608	1
0	265	12.9082	1
1	1	0	2
1	27	0.883569909984	2
1	54	1.750093073573	4
1	106	3.053876852775	6
1	173	6.3038	3
1	215	8.681882823876	3
1	249	11.107	1
1	265	12.9082	0
2	2	0	1
2	29	0.883569909984	1
2	56	1.750093073573	1
2	108	3.053876852775	1
2	174	6.3038	1
2	217	8.681882823876	1
2	250	11.107	1
2	266	12.9082	1
3	7	0.22742065585	1
3	17	0.583369909984	1
3	37	1.249893073573	1
3	40	1.301460995494	1
3	63	2.021521925676	1
3	73	2.353676852775	1
3	76	2.395683859033	1
3	84	2.530581969954	1
3	99	2.933265873838	1
3	117	4.030334455501	1
3	126	4.257511652092	1
3	134	4.407923203293	1
3	160	5.458297221029	1
3	178	6.413021310442	1
3	184	6.573946219491	1
3	205	8.381682823876	1
3	209	8.447310886646	1
3	228	10.122522928492	1
3	259	12.669884653197	1
3	277	13.71104066442	1
3	283	14.457484933192	1
3	286	14.626290823024	1
3	289	14.69937239307	1
3	295	15.511363856892	1
3	302	16.665560596754	1
3	308	17.412527610895	1
3	311	17.567788801281	1
3	318	18.736049967824	1
3	322	18.995301461297	1
3	326	19.385854455733	1
3	330	19.698527092343	1
3	337	20.815695080558	1
3	343	21.889159758847	1
3	348	22.292979249002	1
3	353	22.854681799391	1
3	356	22.938317255232	1
3	360	23.156252910206	1
3	364	23.487797987787	1
3	369	24.020672819123	1
3	375	25.12569446354	1
3	379	25.241643668027	1
3	383	25.693970321759	1
3	394	27.941474013528	1
3	397	28.136265836728	1
3	403	28.888431560582	1
3	407	29.177399595693	1
3	412	29.752225620496	1
3	415	29.878592536989	1
3	419	30.218525854242	1
3	427	31.768025335277	1
3	430	31.807784943053	1
3	434	31.862623003032	1
3	441	33.119132951151	1
3	444	33.319418100448	1
3	450	34.024712797159	1
3	457	35.313405115438	1
3	465	36.625186096197	1
3	474	38.554517862336	1
3	482	39.96102617344	1
3	487	40.588259987484	1
3	490	40.655725906195	1
3	495	41.198190047755	1
3	501	42.168366858774	1
3	506	42.658381646995	1
3	509	42.707676744985	1
3	512	42.798976255127	1
3	519	43.838710492645	1
3	525	44.833469199529	1
3	530	45.360707487856	1
3	538	46.945123899699	1
3	543	47.513117989401	1
3	549	48.370057576087	1
3	555	49.343794756311	1
3	571	53.144426633098	1
3	577	54.198394440221	1
3	584	55.386857561872	1
3	588	55.661910657505	1
3	591	55.77460630154	1
3	594	55.784997095119	1
3	599	56.258575708829	1
3	606	57.586363608864	1
3	610	57.839289345549	1
3	618	59.363523345031	1
3	626	60.64464925133	1
3	629	60.780014865044	1
3	637	62.181912818523	1
3	642	62.958402182269	1
3	646	63.11503016547	1
3	650	63.489913989273	1
3	658	64.860131608389	1
3	661	65.097953163735	1
3	665	65.227967281386	1
3	668	65.427271997662	1
3	672	65.73245670884	1
3	676	66.017536195677	1
3	684	67.316189921383	1
3	698	70.705481837674	1
3	704	71.477776583988	1
3	707	71.696132946179	1
3	710	71.705438016355	1
3	715	72.102058460801	1
3	722	73.388050832918	1
3	725	73.404765033355	1
3	728	73.434112687036	1
3	734	74.297368242909	1
3	740	75.210750827878	1
3	744	75.446453069609	1
3	750	76.435931958994	1
3	757	77.656475905826	1
3	762	78.103727055746	1
3	767	78.893631558374	1
3	773	79.620905997173	1
3	777	80.11132116014	1
3	783	80.986327661863	1
3	790	82.098098769161	1
3	797	83.227079598989	1
3	810	86.446539582237	1
3	835	93.004560873664	1
3	843	94.499404266628	1
3	856	97.468617515456	1
3	861	97.975559623819	1
3	868	99.281302886072	1
3	881	102.128582934296	1
3	887	103.23437284856	1
3	891	103.278415406089	1
3	899	104.841414683947	1
3	906	106.029135431656	1
3	910	106.543658501823	1
3	917	107.55704302216	1
3	923	108.666104091003	1
3	929	109.339907829276	1
3	933	109.617727358891	1
3	938	110.371017065349	1
3	944	111.184099035692	1
3	951	112.33928516104	1
3	959	113.894405710132	1
3	965	114.927248434761	1
3	973	116.308020670717	1
3	981	117.73566520882	1
3	994	120.970449365121	1
3	998	121.07821190644	1
3	1004	121.913962833157	1
3	1007	122.113850475945	1
3	1025	126.522364576607	1
3	1032	127.672284093972	1
3	1035	127.742872592464	1
3	1040	128.193463331826	1
3	1043	128.34726788216	1
3	1047	128.720121652523	1
3	1051	128.895701000453	1
3	1054	129.045623828944	1
3	1059	129.441582828872	1
3	1062	129.536981485676	1
3	1069	130.738873939975	1
3	1074	131.209553849946	1
3	1078	131.694643140161	1
3	1084	132.481662860724	1
3	1088	132.748724145698	1
3	1095	133.963588005398	1
3	1099	134.433063323806	1
3	1108	136.27176368617	1
3	1115	137.428104346074	1
3	1128	140.48539634578	1
3	1133	140.808735251423	1
3	1137	141.355941050469	1
3	1146	143.016717387704	1
3	1150	143.477095177555	1
3	1154	143.649518256123	1
3	1158	143.96916340666	1
3	1161	144.041342736767	1
3	1170	145.627463518392	1
3	1173	145.746808711981	1
3	1183	147.912372860306	1
3	1190	148.929524151352	1
3	1197	150.237240724022	1
3	1207	152.221358572341	1
3	1210	152.285042821542	1
3	1213	152.420181940007	1
3	1219	153.258506442853	1
3	1225	154.126731221994	1
3	1236	156.647119018956	1
3	1241	157.100113601574	1
3	1244	157.197083275085	1
3	1249	157.742406063721	1
3	1263	161.158804049664	1
3	1274	163.511773194778	1
3	1278	163.908787115941	1
3	1282	164.097061825228	1
3	1288	165.052733660018	1
3	1293	165.544886659947	1
3	1296	165.662790232959	1
3	1302	166.338113609724	1
3	1314	169.266052385612	1
3	1318	169.475685476471	1
3	1324	170.423568483312	1
3	1331	171.423472037701	1
3	1342	173.907039517647	1
3	1347	174.552794526785	1
3	1357	176.708294417064	1
3	1360	176.762349983081	1
3	1365	177.279390558277	1
3	1370	177.982380304225	1
3	1381	180.418648925456	1
3	1387	181.24348440409	1
3	1394	182.345907659559	1
3	1399	183.085495699206	1
3	1403	183.365212094639	1
3	1409	184.294452471407	1
3	1413	184.472801957439	1
3	1426	187.593012980713	1
3	1433	188.552247449844	1
3	1442	190.401923956091	1
3	1450	191.955439146616	1
3	1459	193.675884159242	1
3	1469	195.822363135357	1
3	1473	196.240036063747	1
3	1479	197.125608549367	1
3	1486	198.138868294471	1
3	1489	198.298761838454	1
3	1493	198.467189738	1
3	1497	198.764903498137	1
3	1500	198.90308850718	1
3	1506	199.701604071237	1
4	8	0.22742065585	1
4	18	0.583369909984	1
4	38	1.249893073573	1
4	41	1.301460995494	1
4	64	2.021521925676	1
4	74	2.353676852775	1
4	77	2.395683859033	1
4	85	2.530581969954	1
4	100	2.933265873838	1
4	118	4.030334455501	2
4	127	4.257511652092	1
4	135	4.407923203293	1
4	161	5.458297221029	1
4	179	6.413021310442	1
4	185	6.573946219491	1
4	206	8.381682823876	1
4	210	8.447310886646	1
4	229	10.122522928492	2
4	260	12.669884653197	1
4	278	13.71104066442	1
4	284	14.457484933192	2
4	287	14.626290823024	3
4	290	14.69937239307	4
4	296	15.511363856892	5
4	303	16.665560596754	6
4	309	17.412527610895	7
4	312	17.567788801281	8
4	319	18.736049967824	9
4	323	18.995301461297	10
4	327	19.385854455733	11
4	331	19.698527092343	12
4	338	20.815695080558	13
4	344	21.889159758847	14
4	349	22.292979249002	15
4	354	22.854681799391	16
4	357	22.938317255232	17
4	361	23.156252910206	18
4	365	23.487797987787	19
4	370	24.020672819123	20
4	376	25.12569446354	21
4	380	25.241643668027	22
4	384	25.693970321759	23
4	395	27.941474013528	24
4	398	28.136265836728	25
4	404	28.888431560582	26
4	408	29.177399595693	27
4	413	29.752225620496	28
4	416	29.878592536989	29
4	420	30.218525854242	30
4	428	31.768025335277	31
4	431	31.807784943053	32
4	435	31.862623003032	33
4	442	33.119132951151	34
4	445	33.319418100448	35
4	451	34.024712797159	36
4	458	35.313405115438	37
4	466	36.625186096197	38
4	475	38.554517862336	39
4	483	39.96102617344	40
4	488	40.588259987484	41
4	491	40.655725906195	42
4	496	41.198190047755	43
4	502	42.168366858774	44
4	507	42.658381646995	45
4	510	42.707676744985	46
4	513	42.798976255127	47
4	520	43.838710492645	48
4	526	44.833469199529	49
4	531	45.360707487856	50
4	539	46.945123899699	51
4	544	47.513117989401	52
4	550	48.370057576087	53
4	556	49.343794756311	54
4	572	53.144426633098	55
4	578	54.198394440221	56
4	585	55.386857561872	57
4	589	55.661910657505	58
4	592	55.77460630154	59
4	595	55.784997095119	60
4	600	56.258575708829	61
4	607	57.586363608864	62
4	611	57.839289345549	63
4	619	59.363523345031	64
4	627	60.64464925133	65
4	630	60.780014865044	66
4	638	62.181912818523	67
4	643	62.958402182269	68
4	647	63.11503016547	69
4	651	63.489913989273	70
4	659	64.860131608389	71
4	662	65.097953163735	72
4	666	65.227967281386	73
4	669	65.427271997662	74
4	673	65.73245670884	75
4	677	66.017536195677	76
4	685	67.316189921383	77
4	699	70.705481837674	78
4	705	71.477776583988	79
4	708	71.696132946179	80
4	711	71.705438016355	81
4	716	72.102058460801	82
4	723	73.388050832918	83
4	726	73.404765033355	84
4	729	73.434112687036	85
4	735	74.297368242909	86
4	741	75.210750827878	87
4	745	75.446453069609	88
4	751	76.435931958994	89
4	758	77.656475905826	90
4	763	78.103727055746	91
4	768	78.893631558374	92
4	774	79.620905997173	93
4	778	80.11132116014	94
4	784	80.986327661863	95
4	791	82.098098769161	96
4	798	83.227079598989	97
4	811	86.446539582237	98
4	836	93.004560873664	99
4	844	94.499404266628	100
4	857	97.468617515456	101
4	862	97.975559623819	102
4	869	99.281302886072	103
4	882	102.128582934296	104
4	888	103.23437284856	105
4	892	103.278415406089	106
4	900	104.841414683947	107
4	907	106.029135431656	108
4	911	106.543658501823	109
4	918	107.55704302216	110
4	924	108.666104091003	111
4	930	109.339907829276	112
4	934	109.617727358891	113
4	939	110.371017065349	114
4	945	111.184099035692	115
4	952	112.33928516104	116
4	960	113.894405710132	117
4	966	114.927248434761	118
4	974	116.308020670717	119
4	982	117.73566520882	120
4	995	120.970449365121	121
4	999	121.07821190644	122
4	1005	121.913962833157	123
4	1008	122.113850475945	124
4	1026	126.522364576607	125
4	1033	127.672284093972	126
4	1036	127.742872592464	127
4	1041	128.193463331826	128
4	1044	128.34726788216	129
4	1048	128.720121652523	130
4	1052	128.895701000453	131
4	1055	129.045623828944	132
4	1060	129.441582828872	133
4	1063	129.536981485676	134
4	1070	130.738873939975	135
4	1075	131.209553849946	136
4	1079	131.694643140161	137
4	1085	132.481662860724	138
4	1089	132.748724145698	139
4	1096	133.963588005398	140
4	1100	134.433063323806	141
4	1109	136.27176368617	142
4	1116	137.428104346074	143
4	1129	140.48539634578	144
4	1134	140.808735251423	145
4	1138	141.355941050469	146
4	1147	143.016717387704	147
4	1151	143.477095177555	148
4	1155	143.649518256123	149
4	1159	143.96916340666	150
4	1162	144.041342736767	151
4	1171	145.627463518392	152
4	1174	145.746808711981	153
4	1184	147.912372860306	154
4	1191	148.929524151352	155
4	1198	150.237240724022	156
4	1208	152.221358572341	157
4	1211	152.285042821542	158
4	1214	152.420181940007	159
4	1220	153.258506442853	160
4	1226	154.126731221994	161
4	1237	156.647119018956	162
4	1242	157.100113601574	163
4	1245	157.197083275085	164
4	1250	157.742406063721	165
4	1264	161.158804049664	166
4	1275	163.511773194778	167
4	1279	163.908787115941	168
4	1283	164.097061825228	169
4	1289	165.052733660018	170
4	1294	165.544886659947	171
4	1297	165.662790232959	172
4	1303	166.338113609724	173
4	1315	169.266052385612	174
4	1319	169.475685476471	175
4	1325	170.423568483312	176
4	1332	171.423472037701	177
4	1343	173.907039517647	178
4	1348	174.552794526785	179
4	1358	176.708294417064	180
4	1361	176.762349983081	181
4	1366	177.279390558277	182
4	1371	177.982380304225	183
4	1382	180.418648925456	184
4	1388	181.24348440409	185
4	1395	182.345907659559	186
4	1400	183.085495699206	187
4	1404	183.365212094639	188
4	1410	184.294452471407	189
4	1414	184.472801957439	190
4	1427	187.593012980713	191
4	1434	188.552247449844	192
4	1443	190.401923956091	193
4	1451	191.955439146616	194
4	1460	193.675884159242	195
4	1470	195.822363135357	196
4	1474	196.240036063747	197
4	1480	197.125608549367	198
4	1487	198.138868294471	199
4	1490	198.298761838454	200
4	1494	198.467189738	201
4	1498	198.764903498137	202
4	1501	198.90308850718	203
4	1507	199.701604071237	204
5	9	0.22742065585	1
5	19	0.583369909984	2
5	39	1.249893073573	3
5	42	1.349893073573	4
5	65	2.021521925676	5
5	75	2.353676852775	6
5	81	2.453676852775	7
5	86	2.553676852775	8
5	119	4.030334455501	9
5	120	4.130334455501	10
5	128	4.257511652092	11
5	136	4.407923203293	12
5	162	5.458297221029	13
5	180	6.413021310442	14
5	186	6.573946219491	15
5	207	8.381682823876	16
5	230	10.122522928492	17
5	232	10.222522928492	18
5	261	12.669884653197	19
6	11	0.32752065585	1
6	24	0.683469909984	1
6	43	1.349993073573	1
6	46	1.449993073573	1
6	68	2.121621925676	1
6	82	2.453776852775	1
6	87	2.553776852775	1
6	90	2.653776852775	1
6	121	4.130434455501	1
6	125	4.230434455501	1
6	133	4.357611652092	1
6	141	4.508023203293	2
6	164	5.558397221029	1
6	182	6.513121310442	1
6	189	6.674046219491	1
6	212	8.481782823876	1
6	233	10.222622928492	1
6	236	10.322622928492	1
6	263	12.769984653197	1
7	15	0.52762065585	1
7	27	0.883569909984	1
7	49	1.550093073573	1
7	54	1.750093073573	1
7	71	2.321721925676	1
7	91	2.653876852775	1
7	97	2.853876852775	1
7	106	3.053876852775	1
7	130	4.330534455501	1
7	143	4.530534455501	1
7	148	4.730534455501	1
7	154	4.930534455501	1
7	168	5.758497221029	1
7	191	6.713221310442	1
7	197	6.913221310442	1
7	215	8.681882823876	1
7	238	10.422722928492	1
7	244	10.622722928492	1
7	271	12.970084653197	1
8	21	0.62762065585	0.4002
8	34	0.983569909984	0.4002
8	51	1.650093073573	0.4002
8	61	1.850093073573	0.548632078079
8	79	2.421721925676	0.4002
8	94	2.753876852775	0.4002
8	102	2.953876852775	0.558192993742
8	112	3.153876852775	0.623294882821
8	137	4.430534455501	1.497268581663
8	145	4.630534455501	0.6002
8	151	4.830534455501	0.573022803409
8	156	5.030534455501	0.622611252208
8	170	5.858497221029	0.4002
8	193	6.813221310442	0.4002
8	199	7.013221310442	0.439275090951
8	222	8.781882823876	0.4002
8	241	10.522722928492	2.075412041846
8	246	10.722722928492	0.6002
8	273	13.070084653197	0.4002
9	21	0.62762065585	1
9	34	0.983569909984	1
9	51	1.650093073573	1
9	61	1.850093073573	1
9	79	2.421721925676	1
9	94	2.753876852775	1
9	102	2.953876852775	1
9	112	3.153876852775	1
9	137	4.430534455501	1
9	145	4.630534455501	1
9	151	4.830534455501	1
9	156	5.030534455501	1
9	170	5.858497221029	1
9	193	6.813221310442	1
9	199	7.013221310442	1
9	222	8.781882823876	1
9	241	10.522722928492	1
9	246	10.722722928492	1
9	273	13.070084653197	1

