version 3
run FeedbackVersion-12-20240511-20:48:08-11935
attr configname FeedbackVersion
attr datetime 20240511-20:48:08
attr datetimef 20240511-204808
attr experiment FeedbackVersion
attr inifile omnetpp.ini
attr iterationvars $genInterval=0.7
attr iterationvarsd genInterval=0.7
attr iterationvarsf genInterval=0.7-
attr measurement $genInterval=0.7
attr network NetworkFV
attr processid 11935
attr repetition 0
attr replication #0
attr resultdir results
attr runnumber 12
attr seedset 12
itervar genInterval 0.7
config network NetworkFV
config sim-time-limit 200s
config NetworkFV.nodeTx.gen.generationInterval exponential(0.7)
config NetworkFV.nodeTx.gen.packetByteSize 12500
config NetworkFV.queueOne.bufferSize 200
config NetworkFV.nodeRx.queue.bufferSize 200
config NetworkFV.nodeTx.queue.bufferSize 2000000
config NetworkFV.queueZero.bufferSize 200

vector 0 NetworkFV.nodeRx.queue PacketsLost ETV
vector 1 NetworkFV.nodeRx.queue PacketsAsked ETV
vector 2 NetworkFV.queueOne bufferSize ETV
vector 3 NetworkFV.nodeTx.gen packetGen ETV
vector 4 NetworkFV.nodeTx.queue BufferSize ETV
vector 5 NetworkFV.nodeTx.queue PacketsSent ETV
vector 6 NetworkFV.queueZero bufferSize ETV
vector 7 NetworkFV.nodeRx.queue BufferSize ETV
vector 8 NetworkFV.nodeRx.sink Delay ETV
vector 9 NetworkFV.nodeRx.sink packetUsed ETV
0	1	0	1
0	9	0.2	1
0	13	0.4	1
0	36	1.2004	1
0	40	1.5006	1
0	50	2.101	1
0	51	2.4012	1
0	52	2.7014	1
0	56	3.0016	1
0	79	3.3018	1
0	116	4.5026	1
0	125	4.8028	1
0	154	5.7034	1
0	155	6.0036	1
0	156	6.3038	1
0	157	6.604	1
0	168	6.9042	1
0	180	7.5046	1
0	185	7.8048	1
0	186	8.105	1
0	190	8.4052	1
0	220	9.3058	1
0	221	9.606	1
0	222	9.9062	1
0	223	10.2064	1
0	224	10.5066	1
0	225	10.8068	1
0	236	11.107	1
0	246	11.4072	1
0	247	11.7074	1
0	257	12.0076	1
0	270	12.3078	1
0	287	12.9082	1
0	288	13.2084	1
0	297	13.5086	1
0	321	14.109	1
0	353	15.3098	1
0	354	15.61	1
0	355	15.9102	1
0	356	16.2104	1
0	357	16.5106	1
0	361	16.8108	1
0	375	17.4112	1
0	376	17.7114	1
0	377	18.0116	1
0	378	18.3118	1
0	379	18.612	1
0	386	18.9122	1
0	400	19.2124	1
0	407	19.5126	1
0	417	19.8128	1
0	418	20.113	1
0	419	20.4132	1
0	426	20.7134	1
0	437	21.3138	1
0	438	21.614	1
0	439	21.9142	1
0	440	22.2144	1
0	453	22.5146	1
0	477	23.115	1
0	506	24.0156	1
0	507	24.3158	1
0	508	24.616	1
0	509	24.9162	1
0	510	25.2164	1
0	519	25.5166	1
0	539	25.8168	1
0	551	26.4172	1
0	558	26.7174	1
0	569	27.3178	1
0	573	27.618	1
0	583	28.2184	1
0	584	28.5186	1
0	585	28.8188	1
0	586	29.119	1
0	591	29.4192	1
0	592	29.7194	1
0	602	30.0196	1
0	617	30.3198	1
0	626	30.62	1
0	633	31.2204	1
0	640	31.5206	1
0	659	32.121	1
0	674	33.0216	1
0	684	33.3218	1
0	695	33.9222	1
0	696	34.2224	1
0	697	34.5226	1
0	698	34.8228	1
0	699	35.123	1
0	710	35.4232	1
0	736	35.7234	1
0	765	36.624	1
0	775	37.2244	1
0	782	37.5246	1
0	799	38.125	1
0	829	39.3258	1
0	830	39.626	1
0	837	39.9262	1
0	850	40.5266	1
0	892	41.7274	1
0	916	42.628	1
0	946	43.5286	1
0	947	43.8288	1
0	948	44.129	1
0	955	44.4292	1
0	984	45.63	1
0	985	45.9302	1
0	990	46.2304	1
0	991	46.5306	1
0	992	46.8308	1
0	993	47.131	1
0	1000	47.4312	1
0	1024	48.3318	1
0	1038	48.632	1
0	1039	48.9322	1
0	1040	49.2324	1
0	1041	49.5326	1
0	1042	49.8328	1
0	1043	50.133	1
0	1048	50.4332	1
0	1053	50.7334	1
0	1058	51.0336	1
0	1065	51.3338	1
0	1076	51.9342	1
0	1077	52.2344	1
0	1078	52.5346	1
0	1079	52.8348	1
0	1080	53.135	1
0	1090	53.4352	1
0	1106	53.7354	1
0	1116	54.0356	1
0	1117	54.3358	1
0	1126	54.636	1
0	1137	55.2364	1
0	1138	55.5366	1
0	1145	55.8368	1
0	1210	57.638	1
0	1223	58.2384	1
0	1242	59.139	1
0	1243	59.4392	1
0	1250	59.7394	1
0	1257	60.3398	1
0	1262	60.64	1
0	1263	60.9402	1
0	1264	61.2404	1
0	1265	61.5406	1
0	1266	61.8408	1
0	1267	62.141	1
0	1272	62.4412	1
0	1277	62.7414	1
0	1282	63.0416	1
0	1286	63.3418	1
0	1300	63.9422	1
0	1301	64.2424	1
0	1302	64.5426	1
0	1303	64.8428	1
0	1307	65.143	1
0	1335	66.0436	1
0	1336	66.3438	1
0	1337	66.644	1
0	1338	66.9442	1
0	1339	67.2444	1
0	1340	67.5446	1
0	1348	67.8448	1
0	1362	68.145	1
0	1368	68.4452	1
0	1382	69.0456	1
0	1386	69.3458	1
0	1411	70.2464	1
0	1412	70.5466	1
0	1413	70.8468	1
0	1414	71.147	1
0	1415	71.4472	1
0	1422	71.7474	1
0	1445	72.0476	1
0	1460	72.266981436415	1
0	1465	72.3478	1
0	1491	73.2484	1
0	1492	73.5486	1
0	1493	73.8488	1
0	1494	74.149	1
0	1501	74.4492	1
0	1529	75.3498	1
0	1573	76.5506	1
0	1582	76.8508	1
0	1594	77.4512	1
0	1595	77.7514	1
0	1602	78.0516	1
0	1615	78.652	1
0	1626	79.2524	1
0	1637	79.5526	1
0	1746	82.5546	1
0	1747	82.8548	1
0	1751	83.155	1
0	1767	83.7554	1
0	1807	84.656	1
0	1834	85.8568	1
0	1835	86.157	1
0	1845	86.4572	1
0	1873	87.3578	1
0	1899	88.2584	1
0	1900	88.5586	1
0	1901	88.8588	1
0	1902	89.159	1
0	1909	89.4592	1
0	1919	90.0596	1
0	1936	90.66	1
0	1952	91.2604	1
0	1962	91.8608	1
0	1978	92.4612	1
0	1991	93.0616	1
0	2026	94.2624	1
0	2027	94.5626	1
0	2028	94.8628	1
0	2032	95.163	1
0	2045	95.7634	1
0	2058	96.3638	1
0	2072	96.9642	1
0	2079	97.2644	1
0	2092	97.8648	1
0	2158	99.666	1
0	2165	100.2664	1
0	2166	100.5666	1
0	2167	100.8668	1
0	2174	101.167	1
0	2190	101.7674	1
0	2209	102.0676	1
0	2212	102.3678	1
0	2213	102.668	1
0	2214	102.9682	1
0	2221	103.2684	1
0	2228	103.8688	1
0	2233	104.169	1
0	2234	104.4692	1
0	2235	104.7694	1
0	2239	105.0696	1
0	2250	105.3698	1
0	2253	105.67	1
0	2254	105.9702	1
0	2263	106.2704	1
0	2318	107.7714	1
0	2337	108.672	1
0	2338	108.9722	1
0	2339	109.2724	1
0	2340	109.5726	1
0	2347	109.8728	1
0	2354	110.4732	1
0	2369	110.7734	1
0	2382	111.0736	1
0	2390	111.3738	1
0	2412	112.2744	1
0	2413	112.5746	1
0	2420	112.8748	1
0	2433	113.4752	1
0	2440	114.0756	1
0	2441	114.3758	1
0	2446	114.676	1
0	2447	114.9762	1
0	2448	115.2764	1
0	2455	115.5766	1
0	2471	115.8768	1
0	2497	116.7774	1
0	2511	117.3778	1
0	2518	117.678	1
0	2537	118.5786	1
0	2538	118.8788	1
0	2539	119.179	1
0	2540	119.4792	1
0	2551	119.7794	1
0	2567	120.0796	1
0	2581	120.68	1
0	2618	121.5806	1
0	2647	122.4812	1
0	2664	123.0816	1
0	2665	123.3818	1
0	2666	123.682	1
0	2667	123.9822	1
0	2668	124.2824	1
0	2669	124.5826	1
0	2680	124.8828	1
0	2712	125.7834	1
0	2721	126.0836	1
0	2745	126.9842	1
0	2746	127.2844	1
0	2747	127.5846	1
0	2748	127.8848	1
0	2755	128.185	1
0	2762	128.7854	1
0	2767	129.0856	1
0	2768	129.3858	1
0	2775	129.686	1
0	2782	130.2864	1
0	2783	130.5866	1
0	2784	130.8868	1
0	2795	131.187	1
0	2800	131.4872	1
0	2805	131.7874	1
0	2816	132.0876	1
0	2826	132.3878	1
0	2827	132.688	1
0	2834	132.9882	1
0	2845	133.5886	1
0	2846	133.8888	1
0	2847	134.189	1
0	2851	134.4892	1
0	2879	135.3898	1
0	2913	136.5906	1
0	2914	136.8908	1
0	2925	137.191	1
0	2970	138.692	1
0	2971	138.9922	1
0	2972	139.2924	1
0	2977	139.5926	1
0	2984	139.8928	1
0	3003	140.7934	1
0	3004	141.0936	1
0	3005	141.3938	1
0	3012	141.694	1
0	3026	141.9942	1
0	3030	142.2944	1
0	3041	142.5946	1
0	3050	142.8948	1
0	3064	143.4952	1
0	3097	144.3958	1
0	3134	145.2964	1
0	3149	146.197	1
0	3150	146.4972	1
0	3157	146.7974	1
0	3164	147.3978	1
0	3165	147.698	1
0	3176	147.9982	1
0	3186	148.5986	1
0	3200	149.199	1
0	3201	149.4992	1
0	3202	149.7994	1
0	3203	150.0996	1
0	3210	150.3998	1
0	3244	151.3004	1
0	3270	152.201	1
0	3277	152.5012	1
0	3336	154.3024	1
0	3337	154.6026	1
0	3338	154.9028	1
0	3349	155.203	1
0	3377	156.1036	1
0	3415	157.3044	1
0	3446	158.5052	1
0	3453	158.8054	1
0	3476	159.706	1
0	3483	160.0062	1
0	3490	160.6066	1
0	3494	160.9068	1
0	3507	161.5072	1
0	3578	163.3084	1
0	3592	163.9088	1
0	3593	164.209	1
0	3600	164.5092	1
0	3663	166.3104	1
0	3664	166.6106	1
0	3665	166.9108	1
0	3670	167.211	1
0	3674	167.5112	1
0	3720	168.712	1
0	3731	169.3124	1
0	3732	169.6126	1
0	3733	169.9128	1
0	3737	170.213	1
0	3776	171.4138	1
0	3789	172.0142	1
0	3803	172.6146	1
0	3838	173.5152	1
0	3865	174.4158	1
0	3869	174.716	1
0	3978	177.1176	1
0	4006	178.0182	1
0	4007	178.3184	1
0	4008	178.6186	1
0	4012	178.9188	1
0	4041	179.8194	1
0	4051	180.4198	1
0	4052	180.72	1
0	4053	181.0202	1
0	4054	181.3204	1
0	4055	181.6206	1
0	4060	181.9208	1
0	4064	182.221	1
0	4080	182.8214	1
0	4087	183.4218	1
0	4088	183.722	1
0	4092	184.0222	1
0	4121	184.9228	1
0	4122	185.223	1
0	4123	185.5232	1
0	4124	185.8234	1
0	4131	186.1236	1
0	4138	186.724	1
0	4143	187.0242	1
0	4150	187.3244	1
0	4163	187.6246	1
0	4164	187.9248	1
0	4174	188.225	1
0	4184	188.5252	1
0	4185	188.8254	1
0	4195	189.1256	1
0	4206	189.726	1
0	4207	190.0262	1
0	4208	190.3264	1
0	4209	190.6266	1
0	4213	190.9268	1
0	4238	191.8274	1
0	4245	192.1276	1
0	4274	193.0282	1
0	4283	193.3284	1
0	4330	194.8294	1
0	4331	195.1296	1
0	4338	195.4298	1
0	4357	196.3304	1
0	4364	196.6306	1
0	4371	197.231	1
0	4379	197.5312	1
0	4389	198.1316	1
0	4396	198.4318	1
0	4416	199.0322	1
0	4432	199.6326	1
0	4438	199.9328	1
1	1	0	2
1	27	0.831093549754	2
1	56	3.0016	1
1	70	3.220813832121	1
1	85	3.434730270298	2
1	107	4.032117625234	3
1	145	5.332256524653	5
1	180	7.5046	2
1	211	8.887872439362	2
1	225	10.8068	1
1	238	11.173722096546	1
1	259	12.079844024451	1
1	278	12.509733573313	2
1	304	13.732321366815	4
1	344	14.784452220954	6
1	361	16.8108	3
1	386	18.9122	1
1	392	19.0843019966	1
1	409	19.544113456782	1
1	428	20.884981140058	2
1	460	22.790573425872	3
1	497	23.655123212531	5
1	519	25.5166	2
1	533	25.793976444625	2
1	560	26.8661310797	4
1	586	29.119	2
1	611	30.303801894636	2
1	642	31.665087327582	3
1	686	33.390558918404	4
1	710	35.4232	2
1	727	35.69972458751	2
1	748	36.09972458751	3
1	784	37.651660729551	5
1	855	40.621749982066	7
1	937	43.185361293147	11
1	985	45.9302	5
1	1024	48.3318	1
1	1030	48.436556424037	1
1	1043	50.133	0
1	1048	50.4332	0
1	1053	50.7334	1
1	1067	51.453280092093	2
1	1090	53.4352	1
1	1098	53.554695843836	1
1	1108	53.754695843836	1
1	1128	54.708659923959	2
1	1155	56.219535718755	3
1	1195	57.320231299442	5
1	1257	60.3398	2
1	1267	62.141	0
1	1272	62.4412	0
1	1277	62.7414	1
1	1291	63.573686262818	2
1	1326	65.603314510376	3
1	1340	67.5446	1
1	1356	68.059288359013	1
1	1373	68.693612837997	2
1	1402	69.830034371883	3
1	1422	71.7474	1
1	1432	71.866981436415	1
1	1447	72.066981436415	2
1	1471	72.466981436415	3
1	1503	74.57040311746	5
1	1564	76.200912615242	8
1	1615	78.652	4
1	1661	80.145577080867	4
1	1707	81.198736193865	6
1	1787	84.133178403551	9
1	1890	87.883363712521	14
1	1919	90.0596	7
1	2008	93.602145931851	7
1	2058	96.3638	3
1	2099	97.990059964643	3
1	2131	98.786677068932	5
1	2190	101.7674	2
1	2203	102.013256222036	2
1	2228	103.8688	1
1	2244	105.320707378681	1
1	2265	106.32419472738	2
1	2289	106.905484385065	3
1	2328	108.087088058026	4
1	2354	110.4732	2
1	2376	111.038209517564	2
1	2403	111.845297503885	3
1	2441	114.3758	1
1	2457	115.614524054479	1
1	2473	115.915368482051	2
1	2502	117.051502041055	3
1	2540	119.4792	1
1	2553	119.86613548092	1
1	2569	120.253817304666	2
1	2601	121.264069784222	4
1	2655	122.550369701495	6
1	2669	124.5826	3
1	2703	125.453277613662	3
1	2736	126.556768525729	4
1	2762	128.7854	2
1	2784	130.8868	0
1	2795	131.187	0
1	2800	131.4872	1
1	2818	132.237745692388	1
1	2836	133.139766155047	2
1	2864	134.952300563491	4
1	2904	136.169444381013	6
1	2972	139.2924	3
1	3012	141.694	1
1	3018	141.885816275084	1
1	3035	142.519807485798	1
1	3052	143.041807615191	2
1	3080	143.902383660761	3
1	3117	144.931709661724	5
1	3165	147.698	2
1	3191	148.80684474878	2
1	3227	150.898033242239	3
1	3261	151.818140465321	5
1	3327	153.800550722402	8
1	3415	157.3044	4
1	3458	158.83075045079	4
1	3522	161.751791840287	6
1	3583	163.601465480134	10
1	3665	166.9108	5
1	3722	168.719348475426	5
1	3789	172.0142	2
1	3815	172.821575950027	2
1	3840	173.565536455788	3
1	3877	175.0012176573	5
1	3938	176.086505043784	8
1	4029	179.447758353654	12
1	4055	181.6206	6
1	4092	184.0222	2
1	4112	184.470465712964	2
1	4138	186.724	1
1	4155	187.516195950799	1
1	4176	188.242924132123	1
1	4197	189.230492390601	2
1	4229	191.332294575076	3
1	4265	192.646732433169	5
1	4321	194.508730211289	8
1	4371	197.231	4
1	4423	199.261653315727	4
2	2	0	1
2	29	0.831093549754	1
2	57	3.0016	1
2	72	3.220813832121	1
2	87	3.434730270298	1
2	109	4.032117625234	1
2	147	5.332256524653	1
2	181	7.5046	1
2	213	8.887872439362	1
2	226	10.8068	1
2	240	11.173722096546	1
2	261	12.079844024451	1
2	280	12.509733573313	1
2	306	13.732321366815	1
2	346	14.784452220954	1
2	362	16.8108	1
2	387	18.9122	1
2	394	19.0843019966	1
2	411	19.544113456782	1
2	430	20.884981140058	1
2	462	22.790573425872	1
2	499	23.655123212531	1
2	520	25.5166	1
2	535	25.793976444625	1
2	562	26.8661310797	1
2	587	29.119	1
2	613	30.303801894636	1
2	644	31.665087327582	1
2	688	33.390558918404	1
2	711	35.4232	1
2	729	35.69972458751	1
2	750	36.09972458751	1
2	786	37.651660729551	1
2	857	40.621749982066	1
2	939	43.185361293147	1
2	986	45.9302	1
2	1025	48.3318	1
2	1032	48.436556424037	1
2	1044	50.133	1
2	1049	50.4332	1
2	1054	50.7334	1
2	1069	51.453280092093	1
2	1091	53.4352	1
2	1100	53.554695843836	1
2	1110	53.754695843836	1
2	1130	54.708659923959	1
2	1157	56.219535718755	1
2	1197	57.320231299442	1
2	1258	60.3398	1
2	1268	62.141	1
2	1273	62.4412	1
2	1278	62.7414	1
2	1293	63.573686262818	1
2	1328	65.603314510376	1
2	1341	67.5446	1
2	1358	68.059288359013	1
2	1375	68.693612837997	1
2	1404	69.830034371883	1
2	1423	71.7474	1
2	1434	71.866981436415	1
2	1449	72.066981436415	1
2	1473	72.466981436415	1
2	1505	74.57040311746	1
2	1566	76.200912615242	1
2	1616	78.652	1
2	1663	80.145577080867	1
2	1709	81.198736193865	1
2	1789	84.133178403551	1
2	1892	87.883363712521	1
2	1920	90.0596	1
2	2010	93.602145931851	1
2	2059	96.3638	1
2	2101	97.990059964643	1
2	2133	98.786677068932	1
2	2191	101.7674	1
2	2205	102.013256222036	1
2	2229	103.8688	1
2	2246	105.320707378681	1
2	2267	106.32419472738	1
2	2291	106.905484385065	1
2	2330	108.087088058026	1
2	2355	110.4732	1
2	2378	111.038209517564	1
2	2405	111.845297503885	1
2	2442	114.3758	1
2	2459	115.614524054479	1
2	2475	115.915368482051	1
2	2504	117.051502041055	1
2	2541	119.4792	1
2	2555	119.86613548092	1
2	2571	120.253817304666	1
2	2603	121.264069784222	1
2	2657	122.550369701495	1
2	2670	124.5826	1
2	2705	125.453277613662	1
2	2738	126.556768525729	1
2	2763	128.7854	1
2	2785	130.8868	1
2	2796	131.187	1
2	2801	131.4872	1
2	2820	132.237745692388	1
2	2838	133.139766155047	1
2	2866	134.952300563491	1
2	2906	136.169444381013	1
2	2973	139.2924	1
2	3013	141.694	1
2	3020	141.885816275084	1
2	3037	142.519807485798	1
2	3054	143.041807615191	1
2	3082	143.902383660761	1
2	3119	144.931709661724	1
2	3166	147.698	1
2	3193	148.80684474878	1
2	3229	150.898033242239	1
2	3263	151.818140465321	1
2	3329	153.800550722402	1
2	3416	157.3044	1
2	3460	158.83075045079	1
2	3524	161.751791840287	1
2	3585	163.601465480134	1
2	3666	166.9108	1
2	3724	168.719348475426	1
2	3790	172.0142	1
2	3817	172.821575950027	1
2	3842	173.565536455788	1
2	3879	175.0012176573	1
2	3940	176.086505043784	1
2	4031	179.447758353654	1
2	4056	181.6206	1
2	4093	184.0222	1
2	4114	184.470465712964	1
2	4139	186.724	1
2	4157	187.516195950799	1
2	4178	188.242924132123	1
2	4199	189.230492390601	1
2	4231	191.332294575076	1
2	4267	192.646732433169	1
2	4323	194.508730211289	1
2	4372	197.231	1
2	4425	199.261653315727	1
3	6	0.117199895458	1
3	19	0.530893549754	1
3	37	1.473978900669	1
3	53	2.920613832121	1
3	64	3.134530270298	1
3	67	3.197810240629	1
3	97	3.731917625234	1
3	117	4.632056524653	1
3	120	4.642334079284	1
3	131	4.944397373242	1
3	158	6.701528759736	1
3	161	6.725716806711	1
3	187	8.342548339209	1
3	194	8.587672439362	1
3	197	8.611467322608	1
3	202	8.671757835436	1
3	230	10.873522096546	1
3	248	11.779644024451	1
3	254	11.882952244049	1
3	267	12.209533573313	1
3	274	12.443218355563	1
3	289	13.232121366815	1
3	313	13.884252220954	1
3	358	16.763599619049	1
3	380	18.7841019966	1
3	401	19.243913456782	1
3	420	20.584781140058	1
3	441	22.290373425872	1
3	444	22.291956682386	1
3	449	22.439354546887	1
3	469	22.954923212531	1
3	475	23.067019873484	1
3	493	23.629152110879	1
3	511	25.293776444625	1
3	529	25.758801489837	1
3	552	26.5659310797	1
3	570	27.589048498201	1
3	593	29.803601894636	1
3	599	29.926246815544	1
3	618	30.352476564743	1
3	634	31.364887327582	1
3	651	31.94458890321	1
3	654	31.959309464783	1
3	675	33.090358918404	1
3	681	33.192047062056	1
3	700	35.19952458751	1
3	703	35.286049566807	1
3	715	35.462993770127	1
3	733	35.722634449706	1
3	762	36.572308716305	1
3	776	37.351460729551	1
3	793	37.836586883444	1
3	805	38.282627802587	1
3	812	38.441160301623	1
3	831	39.626774527304	1
3	844	40.321549982066	1
3	851	40.560885924991	1
3	861	40.669969688128	1
3	884	41.594654678438	1
3	887	41.632738179878	1
3	907	42.481664870922	1
3	913	42.607361760606	1
3	924	42.885161293147	1
3	949	44.293286699865	1
3	956	44.578493545393	1
3	962	44.605196532526	1
3	994	47.278745908157	1
3	1001	47.450555575298	1
3	1018	48.136356424037	1
3	1059	51.153080092093	1
3	1081	53.254495843836	1
3	1087	53.387327687329	1
3	1118	54.408459923959	1
3	1121	54.499220197388	1
3	1139	55.719335718755	1
3	1161	56.271269819395	1
3	1173	56.636637966515	1
3	1185	57.020031299442	1
3	1204	57.440184431964	1
3	1217	58.096190803745	1
3	1227	58.454506021876	1
3	1244	59.545050289312	1
3	1283	63.273486262818	1
3	1304	65.103114510376	1
3	1311	65.239953891612	1
3	1320	65.458887048268	1
3	1345	67.759088359013	1
3	1352	68.013008078122	1
3	1365	68.393412837997	1
3	1383	69.329834371883	1
3	1396	69.716051443376	1
3	1416	71.566781436415	1
3	1440	72.002205556605	1
3	1443	72.016756395505	1
3	1462	72.344330316533	1
3	1495	74.27020311746	1
3	1511	74.708710204509	1
3	1524	75.300712615242	1
3	1527	75.325773709263	1
3	1533	75.441451285919	1
3	1537	75.503076928407	1
3	1549	75.717552011514	1
3	1574	76.640651172678	1
3	1596	77.831686116566	1
3	1609	78.539491803322	1
3	1627	79.445377080867	1
3	1630	79.465190311924	1
3	1632	79.475413638097	1
3	1640	79.725256179063	1
3	1657	80.13514006074	1
3	1670	80.309828513834	1
3	1693	80.898536193865	1
3	1698	80.938150248217	1
3	1719	81.424329481769	1
3	1733	81.942857837193	1
3	1748	83.086431751903	1
3	1759	83.463372978766	1
3	1771	83.832978403551	1
3	1776	83.867572438846	1
3	1778	83.902438439938	1
3	1801	84.497142804921	1
3	1819	85.090081972998	1
3	1836	86.229106290534	1
3	1842	86.443756765714	1
3	1846	86.528168997344	1
3	1870	87.356007980889	1
3	1877	87.583163712521	1
3	1903	89.267471912815	1
3	1916	89.985898368341	1
3	1933	90.582223070152	1
3	1946	91.05733146368	1
3	1959	91.765772701834	1
3	1972	92.260214942173	1
3	1985	92.86874613474	1
3	1997	93.301945931851	1
3	2004	93.565537508548	1
3	2029	95.141483190534	1
3	2042	95.664565415012	1
3	2055	96.316153620158	1
3	2073	97.042559377763	1
3	2086	97.689859964643	1
3	2093	97.8757474911	1
3	2111	98.286477068932	1
3	2116	98.330635469677	1
3	2137	98.788446979777	1
3	2152	99.415720186445	1
3	2168	100.951002297244	1
3	2181	101.513056222036	1
3	2187	101.676734431498	1
3	2215	102.995518628899	1
3	2236	105.020507378681	1
3	2255	106.02399472738	1
3	2258	106.077410956877	1
3	2271	106.405284385065	1
3	2297	107.038255684103	1
3	2310	107.586888058026	1
3	2313	107.609040664771	1
3	2341	109.771934062783	1
3	2359	110.538009517564	1
3	2362	110.635007012486	1
3	2385	111.345097503885	1
3	2388	111.35779514603	1
3	2414	112.746509759112	1
3	2427	113.32556431347	1
3	2449	115.314324054479	1
3	2463	115.615168482051	1
3	2481	116.028110819298	1
3	2494	116.751302041055	1
3	2512	117.527276013389	1
3	2519	117.758967559172	1
3	2545	119.56593548092	1
3	2559	119.953617304666	1
3	2578	120.629864898496	1
3	2588	120.963869784222	1
3	2597	121.236500378074	1
3	2608	121.333495032915	1
3	2619	121.602919887359	1
3	2641	122.250169701495	1
3	2648	122.491350564744	1
3	2651	122.543660533749	1
3	2674	124.753077613662	1
3	2688	125.067526359798	1
3	2699	125.43209044588	1
3	2713	125.856568525729	1
3	2749	127.906950797452	1
3	2769	129.537970784843	1
3	2789	130.900341669203	1
3	2792	131.120134812604	1
3	2806	131.937545692388	1
3	2809	132.00450166724	1
3	2811	132.006807033963	1
3	2828	132.839566155047	1
3	2848	134.452100563491	1
3	2873	135.269244381013	1
3	2915	137.036073059519	1
3	2918	137.070194702327	1
3	2920	137.074343523577	1
3	2933	137.342879305875	1
3	2957	138.063748160409	1
3	2978	139.788086394139	1
3	2988	140.128626507497	1
3	3006	141.585616275084	1
3	3027	142.219607485798	1
3	3044	142.741607615191	1
3	3061	143.402183660761	1
3	3068	143.590772247083	1
3	3089	144.231509661724	1
3	3092	144.330519191663	1
3	3103	144.592584710208	1
3	3126	145.146982264793	1
3	3129	145.197686669576	1
3	3151	146.64612331045	1
3	3170	147.775304386368	1
3	3183	148.50664474878	1
3	3204	150.2034502352	1
3	3214	150.597833242239	1
3	3223	150.749389467793	1
3	3236	151.117940465321	1
3	3242	151.283484715554	1
3	3271	152.363642131781	1
3	3281	152.695383698079	1
3	3290	152.908989677859	1
3	3305	153.269897266967	1
3	3314	153.500350722402	1
3	3339	155.015409415644	1
3	3342	155.031731837958	1
3	3347	155.189819917962	1
3	3371	155.971127914715	1
3	3381	156.351248945831	1
3	3390	156.459418919944	1
3	3407	157.190224610122	1
3	3410	157.250384991917	1
3	3431	157.752080929336	1
3	3447	158.53055045079	1
3	3454	158.814900330451	1
3	3477	159.753458239315	1
3	3491	160.80850716327	1
3	3504	161.451591840287	1
3	3511	161.553462106677	1
3	3514	161.591610261176	1
3	3518	161.740594992928	1
3	3534	161.975686508015	1
3	3550	162.336291648314	1
3	3575	163.301265480134	1
3	3594	164.3832787002	1
3	3604	164.758488846654	1
3	3613	164.963429669238	1
3	3622	165.066371710651	1
3	3626	165.147540774739	1
3	3645	165.633078761202	1
3	3671	167.501353813449	1
3	3678	167.618776585233	1
3	3681	167.713359272773	1
3	3685	167.7689302673	1
3	3712	168.419148475426	1
3	3734	170.208034502364	1
3	3741	170.447897947319	1
3	3751	170.579829983746	1
3	3770	171.269271162264	1
3	3783	171.767287274168	1
3	3800	172.521375950027	1
3	3807	172.673343111242	1
3	3810	172.722433194163	1
3	3830	173.265336455788	1
3	3846	173.572770787868	1
3	3866	174.7010176573	1
3	3873	174.986305043784	1
3	3889	175.130213927518	1
3	3894	175.267004107646	1
3	3908	175.530169695637	1
3	3911	175.535794574728	1
3	3915	175.595677323178	1
3	3917	175.603022609754	1
3	3947	176.267742015229	1
3	3972	176.904712505664	1
3	3979	177.187410927135	1
3	3985	177.249316285101	1
3	4009	178.882039640808	1
3	4016	179.147558353654	1
3	4038	179.725963303318	1
3	4061	182.149035225242	1
3	4072	182.522549650547	1
3	4089	183.970265712964	1
3	4100	184.169290889738	1
3	4125	185.876848034519	1
3	4144	187.215995950799	1
3	4151	187.346340857867	1
3	4165	187.942724132123	1
3	4171	188.209409568978	1
3	4186	188.930292390601	1
3	4192	189.124039797189	1
3	4210	190.832094575076	1
3	4225	191.304747736143	1
3	4239	191.946532433169	1
3	4259	192.496129299851	1
3	4275	193.125146925206	1
3	4289	193.489117416193	1
3	4313	194.208530211289	1
3	4332	195.158001326428	1
3	4344	195.613542560733	1
3	4358	196.335994961167	1
3	4376	197.515638877193	1
3	4390	198.269455013161	1
3	4403	198.761453315727	1
3	4409	198.874577544343	1
3	4412	198.874873170034	1
3	4433	199.835778617737	1
3	4436	199.856637011309	1
4	7	0.117199895458	1
4	20	0.530893549754	1
4	38	1.473978900669	1
4	54	2.920613832121	1
4	65	3.134530270298	1
4	68	3.197810240629	1
4	98	3.731917625234	1
4	118	4.632056524653	1
4	121	4.642334079284	1
4	132	4.944397373242	1
4	159	6.701528759736	1
4	162	6.725716806711	1
4	188	8.342548339209	1
4	195	8.587672439362	1
4	198	8.611467322608	1
4	203	8.671757835436	2
4	231	10.873522096546	3
4	249	11.779644024451	3
4	255	11.882952244049	3
4	268	12.209533573313	4
4	275	12.443218355563	4
4	290	13.232121366815	5
4	314	13.884252220954	4
4	359	16.763599619049	1
4	381	18.7841019966	1
4	402	19.243913456782	1
4	421	20.584781140058	1
4	442	22.290373425872	1
4	445	22.291956682386	1
4	450	22.439354546887	1
4	470	22.954923212531	2
4	476	23.067019873484	1
4	494	23.629152110879	1
4	512	25.293776444625	2
4	530	25.758801489837	1
4	553	26.5659310797	1
4	571	27.589048498201	1
4	594	29.803601894636	1
4	600	29.926246815544	1
4	619	30.352476564743	1
4	635	31.364887327582	1
4	652	31.94458890321	1
4	655	31.959309464783	1
4	676	33.090358918404	1
4	682	33.192047062056	1
4	701	35.19952458751	2
4	704	35.286049566807	2
4	716	35.462993770127	1
4	734	35.722634449706	1
4	763	36.572308716305	1
4	777	37.351460729551	1
4	794	37.836586883444	1
4	806	38.282627802587	1
4	813	38.441160301623	1
4	832	39.626774527304	1
4	845	40.321549982066	1
4	852	40.560885924991	1
4	862	40.669969688128	2
4	885	41.594654678438	1
4	888	41.632738179878	1
4	908	42.481664870922	1
4	914	42.607361760606	1
4	925	42.885161293147	1
4	950	44.293286699865	1
4	957	44.578493545393	1
4	963	44.605196532526	1
4	995	47.278745908157	1
4	1002	47.450555575298	1
4	1019	48.136356424037	1
4	1060	51.153080092093	1
4	1082	53.254495843836	1
4	1088	53.387327687329	1
4	1119	54.408459923959	1
4	1122	54.499220197388	1
4	1140	55.719335718755	2
4	1162	56.271269819395	1
4	1174	56.636637966515	1
4	1186	57.020031299442	1
4	1205	57.440184431964	1
4	1218	58.096190803745	1
4	1228	58.454506021876	1
4	1245	59.545050289312	1
4	1284	63.273486262818	1
4	1305	65.103114510376	1
4	1312	65.239953891612	1
4	1321	65.458887048268	1
4	1346	67.759088359013	2
4	1353	68.013008078122	2
4	1366	68.393412837997	3
4	1384	69.329834371883	3
4	1397	69.716051443376	2
4	1417	71.566781436415	3
4	1441	72.002205556605	1
4	1444	72.016756395505	1
4	1463	72.344330316533	1
4	1496	74.27020311746	1
4	1512	74.708710204509	1
4	1525	75.300712615242	1
4	1528	75.325773709263	1
4	1534	75.441451285919	1
4	1538	75.503076928407	1
4	1550	75.717552011514	1
4	1575	76.640651172678	2
4	1597	77.831686116566	1
4	1610	78.539491803322	1
4	1628	79.445377080867	1
4	1631	79.465190311924	1
4	1633	79.475413638097	2
4	1641	79.725256179063	1
4	1658	80.13514006074	1
4	1671	80.309828513834	2
4	1694	80.898536193865	1
4	1699	80.938150248217	1
4	1720	81.424329481769	1
4	1734	81.942857837193	1
4	1749	83.086431751903	1
4	1760	83.463372978766	1
4	1772	83.832978403551	1
4	1777	83.867572438846	1
4	1779	83.902438439938	2
4	1802	84.497142804921	2
4	1820	85.090081972998	1
4	1837	86.229106290534	1
4	1843	86.443756765714	1
4	1847	86.528168997344	1
4	1871	87.356007980889	1
4	1878	87.583163712521	1
4	1904	89.267471912815	1
4	1917	89.985898368341	1
4	1934	90.582223070152	1
4	1947	91.05733146368	1
4	1960	91.765772701834	1
4	1973	92.260214942173	1
4	1986	92.86874613474	1
4	1998	93.301945931851	1
4	2005	93.565537508548	1
4	2030	95.141483190534	1
4	2043	95.664565415012	1
4	2056	96.316153620158	1
4	2074	97.042559377763	1
4	2087	97.689859964643	1
4	2094	97.8757474911	1
4	2112	98.286477068932	1
4	2117	98.330635469677	1
4	2138	98.788446979777	1
4	2153	99.415720186445	1
4	2169	100.951002297244	1
4	2182	101.513056222036	1
4	2188	101.676734431498	1
4	2216	102.995518628899	1
4	2237	105.020507378681	1
4	2256	106.02399472738	1
4	2259	106.077410956877	1
4	2272	106.405284385065	2
4	2298	107.038255684103	1
4	2311	107.586888058026	1
4	2314	107.609040664771	1
4	2342	109.771934062783	1
4	2360	110.538009517564	1
4	2363	110.635007012486	1
4	2386	111.345097503885	1
4	2389	111.35779514603	1
4	2415	112.746509759112	1
4	2428	113.32556431347	1
4	2450	115.314324054479	1
4	2464	115.615168482051	1
4	2482	116.028110819298	1
4	2495	116.751302041055	1
4	2513	117.527276013389	1
4	2520	117.758967559172	1
4	2546	119.56593548092	1
4	2560	119.953617304666	1
4	2579	120.629864898496	1
4	2589	120.963869784222	1
4	2598	121.236500378074	1
4	2609	121.333495032915	2
4	2620	121.602919887359	1
4	2642	122.250169701495	1
4	2649	122.491350564744	1
4	2652	122.543660533749	2
4	2675	124.753077613662	3
4	2689	125.067526359798	1
4	2700	125.43209044588	2
4	2714	125.856568525729	3
4	2750	127.906950797452	1
4	2770	129.537970784843	1
4	2790	130.900341669203	1
4	2793	131.120134812604	2
4	2807	131.937545692388	3
4	2810	132.00450166724	3
4	2812	132.006807033963	4
4	2829	132.839566155047	5
4	2849	134.452100563491	5
4	2874	135.269244381013	4
4	2916	137.036073059519	1
4	2919	137.070194702327	1
4	2921	137.074343523577	2
4	2934	137.342879305875	1
4	2958	138.063748160409	1
4	2979	139.788086394139	1
4	2989	140.128626507497	1
4	3007	141.585616275084	1
4	3028	142.219607485798	1
4	3045	142.741607615191	1
4	3062	143.402183660761	1
4	3069	143.590772247083	1
4	3090	144.231509661724	1
4	3093	144.330519191663	1
4	3104	144.592584710208	1
4	3127	145.146982264793	1
4	3130	145.197686669576	1
4	3152	146.64612331045	1
4	3171	147.775304386368	1
4	3184	148.50664474878	1
4	3205	150.2034502352	1
4	3215	150.597833242239	1
4	3224	150.749389467793	1
4	3237	151.117940465321	2
4	3243	151.283484715554	1
4	3272	152.363642131781	1
4	3282	152.695383698079	1
4	3291	152.908989677859	1
4	3306	153.269897266967	1
4	3315	153.500350722402	1
4	3340	155.015409415644	1
4	3343	155.031731837958	1
4	3348	155.189819917962	1
4	3372	155.971127914715	1
4	3382	156.351248945831	1
4	3391	156.459418919944	1
4	3408	157.190224610122	1
4	3411	157.250384991917	1
4	3432	157.752080929336	1
4	3448	158.53055045079	1
4	3455	158.814900330451	1
4	3478	159.753458239315	1
4	3492	160.80850716327	1
4	3505	161.451591840287	1
4	3512	161.553462106677	1
4	3515	161.591610261176	1
4	3519	161.740594992928	2
4	3535	161.975686508015	3
4	3551	162.336291648314	1
4	3576	163.301265480134	1
4	3595	164.3832787002	1
4	3605	164.758488846654	1
4	3614	164.963429669238	1
4	3623	165.066371710651	1
4	3627	165.147540774739	1
4	3646	165.633078761202	1
4	3672	167.501353813449	1
4	3679	167.618776585233	1
4	3682	167.713359272773	1
4	3686	167.7689302673	1
4	3713	168.419148475426	1
4	3735	170.208034502364	1
4	3742	170.447897947319	1
4	3752	170.579829983746	1
4	3771	171.269271162264	1
4	3784	171.767287274168	1
4	3801	172.521375950027	1
4	3808	172.673343111242	1
4	3811	172.722433194163	1
4	3831	173.265336455788	2
4	3847	173.572770787868	1
4	3867	174.7010176573	1
4	3874	174.986305043784	1
4	3890	175.130213927518	1
4	3895	175.267004107646	1
4	3909	175.530169695637	1
4	3912	175.535794574728	1
4	3916	175.595677323178	2
4	3918	175.603022609754	3
4	3948	176.267742015229	2
4	3973	176.904712505664	1
4	3980	177.187410927135	1
4	3986	177.249316285101	1
4	4010	178.882039640808	1
4	4017	179.147558353654	1
4	4039	179.725963303318	1
4	4062	182.149035225242	1
4	4073	182.522549650547	1
4	4090	183.970265712964	1
4	4101	184.169290889738	1
4	4126	185.876848034519	1
4	4145	187.215995950799	1
4	4152	187.346340857867	1
4	4166	187.942724132123	2
4	4172	188.209409568978	2
4	4187	188.930292390601	3
4	4193	189.124039797189	3
4	4211	190.832094575076	4
4	4226	191.304747736143	3
4	4240	191.946532433169	4
4	4260	192.496129299851	2
4	4276	193.125146925206	3
4	4290	193.489117416193	1