version 3
run FeedbackVersion-5-20240511-20:48:08-11935
attr configname FeedbackVersion
attr datetime 20240511-20:48:08
attr datetimef 20240511-204808
attr experiment FeedbackVersion
attr inifile omnetpp.ini
attr iterationvars $genInterval=0.35
attr iterationvarsd genInterval=0.35
attr iterationvarsf genInterval=0.35-
attr measurement $genInterval=0.35
attr network NetworkFV
attr processid 11935
attr repetition 0
attr replication #0
attr resultdir results
attr runnumber 5
attr seedset 5
itervar genInterval 0.35
config network NetworkFV
config sim-time-limit 200s
config NetworkFV.nodeTx.gen.generationInterval exponential(0.35)
config NetworkFV.nodeTx.gen.packetByteSize 12500
config NetworkFV.queueOne.bufferSize 200
config NetworkFV.nodeRx.queue.bufferSize 200
config NetworkFV.nodeTx.queue.bufferSize 2000000
config NetworkFV.queueZero.bufferSize 200

vector 0 NetworkFV.nodeRx.queue PacketsLost ETV
vector 1 NetworkFV.nodeRx.queue PacketsAsked ETV
vector 2 NetworkFV.queueOne bufferSize ETV
vector 3 NetworkFV.nodeTx.gen packetGen ETV
vector 4 NetworkFV.nodeTx.queue BufferSize ETV
vector 5 NetworkFV.nodeTx.queue PacketsSent ETV
vector 6 NetworkFV.queueZero bufferSize ETV
vector 7 NetworkFV.nodeRx.queue BufferSize ETV
vector 8 NetworkFV.nodeRx.sink Delay ETV
vector 9 NetworkFV.nodeRx.sink packetUsed ETV
0	1	0	1
0	14	0.2	1
0	39	1.0004	1
0	54	1.6008	1
0	68	2.2012	1
0	69	2.5014	1
0	78	2.8016	1
0	98	3.7022	1
0	102	4.0024	1
0	125	4.6028	1
0	218	7.0044	1
0	219	7.3046	1
0	220	7.6048	1
0	231	7.905	1
0	253	8.5054	1
0	282	9.406	1
0	302	10.0064	1
0	352	11.2072	1
0	363	11.5074	1
0	514	14.8096	1
0	594	16.6108	1
0	613	17.2112	1
0	633	18.1118	1
0	637	18.412	1
0	647	19.0124	1
0	648	19.3126	1
0	655	19.6128	1
0	678	20.5134	1
0	679	20.8136	1
0	690	21.1138	1
0	712	22.0144	1
0	713	22.3146	1
0	714	22.6148	1
0	719	22.915	1
0	733	23.2152	1
0	749	23.5154	1
0	758	23.8156	1
0	780	24.7162	1
0	789	25.0164	1
0	902	27.7182	1
0	941	28.919	1
0	951	29.5194	1
0	952	29.8196	1
0	953	30.1198	1
0	959	30.42	1
0	1011	31.6208	1
0	1030	32.5214	1
0	1041	32.8216	1
0	1057	33.422	1
0	1064	33.7222	1
0	1126	35.5234	1
0	1127	35.8236	1
0	1128	36.1238	1
0	1137	36.424	1
0	1239	38.5254	1
0	1285	39.7262	1
0	1413	42.7282	1
0	1420	43.3286	1
0	1424	43.6288	1
0	1507	46.0304	1
0	1516	46.3306	1
0	1537	47.2312	1
0	1550	47.8316	1
0	1563	48.432	1
0	1570	49.0324	1
0	1585	49.3326	1
0	1734	52.6348	1
0	1843	55.6368	1
0	1885	56.8376	1
0	1892	57.1378	1
0	1899	57.7382	1
0	1906	58.0384	1
0	1913	58.6388	1
0	1921	58.939	1
0	1931	59.5394	1
0	1932	59.8396	1
0	1945	60.1398	1
0	1983	61.3406	1
0	1994	61.941	1
0	1995	62.2412	1
0	1996	62.5414	1
0	1997	62.8416	1
0	2004	63.1418	1
0	2078	64.6428	1
0	2100	65.5434	1
0	2106	65.8436	1
0	2248	69.1458	1
0	2290	70.3466	1
0	2291	70.6468	1
0	2298	70.947	1
0	2311	71.5474	1
0	2397	73.6488	1
0	2398	73.949	1
0	2405	74.2492	1
0	2430	75.1498	1
0	2481	76.951	1
0	2482	77.2512	1
0	2490	77.5514	1
0	2593	80.2532	1
0	2606	80.8536	1
0	2620	81.454	1
0	2621	81.7542	1
0	2628	82.0544	1
0	2641	82.6548	1
0	2668	83.5554	1
0	2675	83.8556	1
0	2697	84.456	1
0	2754	85.957	1
0	2758	86.2572	1
0	2786	87.1578	1
0	2797	87.7582	1
0	2808	88.0584	1
0	2820	88.6588	1
0	2821	88.959	1
0	2832	89.2592	1
0	2862	90.1598	1
0	2885	91.0604	1
0	2886	91.3606	1
0	2887	91.6608	1
0	2894	91.961	1
0	2917	92.8616	1
0	2921	93.1618	1
0	2942	93.7622	1
0	2960	94.3626	1
0	2983	95.2632	1
0	2984	95.5634	1
0	2994	95.8636	1
0	3130	98.8656	1
0	3374	104.5694	1
0	3381	104.8696	1
0	3394	105.47	1
0	3407	106.0704	1
0	3432	106.971	1
0	3439	107.5714	1
0	3450	107.8716	1
0	3462	108.472	1
0	3493	109.6728	1
0	3573	111.7742	1
0	3608	112.975	1
0	3609	113.2752	1
0	3613	113.5754	1
0	3643	114.7762	1
0	3647	115.0764	1
0	3673	115.977	1
0	3674	116.2772	1
0	3684	116.5774	1
0	3705	117.1778	1
0	3728	118.0784	1
0	3737	118.3786	1
0	3783	119.8796	1
0	3790	120.1798	1
0	3848	121.981	1
0	3888	122.8816	1
0	3952	124.6828	1
0	3979	125.5834	1
0	3986	126.1838	1
0	3990	126.484	1
0	4026	127.3846	1
0	4102	129.1858	1
0	4117	130.0864	1
0	4118	130.3866	1
0	4119	130.6868	1
0	4126	130.987	1
0	4185	132.7882	1
0	4233	134.2892	1
0	4245	134.5894	1
0	4263	135.1898	1
0	4464	139.993	1
0	4468	140.2932	1
0	4491	140.8936	1
0	4557	142.995	1
0	4575	143.5954	1
0	4940	151.4006	1
0	4969	152.001	1
0	5027	153.8022	1
0	5043	154.4026	1
0	5088	155.9036	1
0	5155	157.7048	1
0	5167	158.3052	1
0	5168	158.6054	1
0	5169	158.9056	1
0	5175	159.2058	1
0	5209	160.4066	1
0	5218	160.7068	1
0	5259	161.9076	1
0	5266	162.508	1
0	5276	162.8082	1
0	5290	163.4086	1
0	5298	163.7088	1
0	5314	164.3092	1
0	5333	165.2098	1
0	5340	165.51	1
0	5384	167.011	1
0	5385	167.3112	1
0	5392	167.6114	1
0	5405	168.2118	1
0	5477	169.7128	1
0	5488	170.013	1
0	5642	173.9156	1
0	5646	174.2158	1
0	5702	175.7168	1
0	5703	176.017	1
0	5704	176.3172	1
0	5714	176.6174	1
0	5751	177.8182	1
0	5758	178.4186	1
0	5759	178.7188	1
0	5760	179.019	1
0	5761	179.3192	1
0	5765	179.6194	1
0	5794	180.52	1
0	5801	180.8202	1
0	5824	181.7208	1
0	5825	182.021	1
0	5842	182.3212	1
0	5897	183.522	1
0	5952	185.023	1
0	5963	185.3232	1
0	6051	187.4246	1
0	6087	188.6254	1
0	6097	188.9256	1
0	6118	189.526	1
0	6136	190.1264	1
0	6148	190.7268	1
0	6153	191.027	1
0	6154	191.3272	1
0	6155	191.6274	1
0	6156	191.9276	1
0	6169	192.2278	1
0	6247	194.3292	1
0	6248	194.6294	1
0	6259	194.9296	1
0	6311	196.4306	1
0	6325	197.031	1
0	6329	197.3312	1
0	6416	199.7328	1
1	1	0	2
1	24	0.588056992192	2
1	59	1.746907198619	4
1	113	4.22381729734	6
1	180	5.822470639911	10
1	282	9.406	5
1	335	10.634254186594	5
1	400	12.239634011982	7
1	475	13.963297046349	11
1	596	16.638423723274	17
1	655	19.6128	8
1	714	22.6148	2
1	743	23.463869197701	2
1	771	24.183930526241	4
1	821	25.654004493207	6
1	890	27.216289035664	9
1	959	30.42	4
1	996	31.288382891915	4
1	1048	33.109601624767	7
1	1137	36.424	3
1	1166	36.924645262667	3
1	1201	37.581129595643	5
1	1265	39.048192472222	8
1	1348	41.167183428161	12
1	1492	45.406051681506	18
1	1570	49.0324	9
1	1666	51.007356779867	9
1	1771	53.537139134134	13
1	1913	58.6388	6
1	1985	61.490409687543	6
1	2061	64.307113620389	10
1	2175	67.269989368397	15
1	2351	72.349389011518	22
1	2482	77.2512	11
1	2611	81.084109504347	11
1	2675	83.8556	5
1	2729	85.136184758002	5
1	2788	87.289636119005	8
1	2862	90.1598	4
1	2908	92.550105279959	4
1	2962	94.411474746333	6
1	3041	96.811444723435	9
1	3146	99.183453235285	14
1	3295	102.356845359616	21
1	3439	107.5714	10
1	3556	111.298113321856	10
1	3647	115.0764	5
1	3707	117.231865077536	5
1	3774	119.328542003276	8
1	3873	122.429308962546	12
1	4007	126.938756870158	18
1	4126	130.987	9
1	4224	133.868304710971	9
1	4349	136.877441156957	13
1	4476	140.58743150251	20
1	4710	146.611902403418	31
1	5045	154.419068602166	46
1	5175	159.2058	23
1	5290	163.4086	7
1	5375	166.45962414737	7
1	5468	169.393259700028	11
1	5584	172.120404815816	17
1	5714	176.6174	8
1	5765	179.6194	2
1	5785	180.065838030719	2
1	5815	181.41232983231	4
1	5882	182.942683047561	6
1	5943	184.6627004016	9
1	6039	187.076239373638	14
1	6148	190.7268	7
1	6226	193.457636265914	7
1	6316	196.531620401314	11
2	2	0	1
2	26	0.588056992192	1
2	61	1.746907198619	1
2	115	4.22381729734	1
2	182	5.822470639911	1
2	283	9.406	1
2	337	10.634254186594	1
2	402	12.239634011982	1
2	477	13.963297046349	1
2	598	16.638423723274	1
2	656	19.6128	1
2	715	22.6148	1
2	745	23.463869197701	1
2	773	24.183930526241	1
2	823	25.654004493207	1
2	892	27.216289035664	1
2	960	30.42	1
2	998	31.288382891915	1
2	1050	33.109601624767	1
2	1138	36.424	1
2	1168	36.924645262667	1
2	1203	37.581129595643	1
2	1267	39.048192472222	1
2	1350	41.167183428161	1
2	1494	45.406051681506	1
2	1571	49.0324	1
2	1668	51.007356779867	1
2	1773	53.537139134134	1
2	1914	58.6388	1
2	1987	61.490409687543	1
2	2063	64.307113620389	1
2	2177	67.269989368397	1
2	2353	72.349389011518	1
2	2483	77.2512	1
2	2613	81.084109504347	1
2	2676	83.8556	1
2	2731	85.136184758002	1
2	2790	87.289636119005	1
2	2863	90.1598	1
2	2910	92.550105279959	1
2	2964	94.411474746333	1
2	3043	96.811444723435	1
2	3148	99.183453235285	1
2	3297	102.356845359616	1
2	3440	107.5714	1
2	3558	111.298113321856	1
2	3648	115.0764	1
2	3709	117.231865077536	1
2	3776	119.328542003276	1
2	3875	122.429308962546	1
2	4009	126.938756870158	1
2	4127	130.987	1
2	4226	133.868304710971	1
2	4351	136.877441156957	1
2	4478	140.58743150251	1
2	4712	146.611902403418	1
2	5047	154.419068602166	1
2	5176	159.2058	1
2	5291	163.4086	1
2	5377	166.45962414737	1
2	5470	169.393259700028	1
2	5586	172.120404815816	1
2	5715	176.6174	1
2	5766	179.6194	1
2	5787	180.065838030719	1
2	5817	181.41232983231	1
2	5884	182.942683047561	1
2	5945	184.6627004016	1
2	6041	187.076239373638	1
2	6149	190.7268	1
2	6228	193.457636265914	1
2	6318	196.531620401314	1
3	6	0.087856992192	1
3	9	0.107723332959	1
3	33	0.823777783242	1
3	46	1.446707198619	1
3	49	1.527759485918	1
3	55	1.686009576054	1
3	70	2.563989467379	1
3	99	3.92361729734	1
3	106	4.158199226058	1
3	109	4.191139137606	1
3	122	4.522270639911	1
3	129	4.699161120275	1
3	149	5.207375288622	1
3	159	5.360384608913	1
3	170	5.616122168926	1
3	186	5.849493078192	1
3	194	5.97273320139	1
3	221	7.614523570689	1
3	224	7.687292658748	1
3	243	8.265397494041	1
3	246	8.294863175281	1
3	257	8.661760216099	1
3	276	9.131142660967	1
3	293	9.730298490325	1
3	299	9.934054186594	1
3	306	10.031278966658	1
3	311	10.091599136589	1
3	330	10.597525377366	1
3	353	11.339434011982	1
3	356	11.380575261141	1
3	361	11.492688790369	1
3	366	11.572611472865	1
3	377	11.759804295575	1
3	380	11.804186360201	1
3	388	11.927068024952	1
3	414	12.663097046349	1
3	429	13.009940641585	1
3	441	13.269520062536	1
3	455	13.573010127838	1
3	466	13.810149679565	1
3	483	14.130789489591	1
3	501	14.591490093033	1
3	507	14.699640041377	1
3	510	14.704780874439	1
3	515	14.822042602668	1
3	517	14.856347211501	1
3	524	14.958714448991	1
3	549	15.571876096645	1
3	560	15.710772984947	1
3	582	16.338223723274	1
3	587	16.392710622383	1
3	610	17.173013588239	1
3	614	17.23638381183	1
3	634	18.346026306061	1
3	649	19.508834266599	1
3	660	19.797242697141	1
3	680	20.925838695362	1
3	683	20.95905853321	1
3	688	21.03212653551	1
3	720	22.963669197701	1
3	723	22.972281591855	1
3	730	23.199411369809	1
3	737	23.279510360296	1
3	752	23.683730526241	1
3	766	24.104938602396	1
3	781	24.753804493207	1
3	800	25.282977795382	1
3	814	25.61808104735	1
3	817	25.626201098165	1
3	829	25.916089035664	1
3	844	26.217772018513	1
3	851	26.378464915345	1
3	854	26.379040147334	1
3	871	26.790007123509	1
3	883	27.043610581857	1
3	899	27.636416519095	1
3	913	27.993795371567	1
3	938	28.903404773762	1
3	954	30.388182891915	1
3	957	30.390195941243	1
3	967	30.495156170243	1
3	982	30.941394323519	1
3	1005	31.509094650058	1
3	1015	31.894021281637	1
3	1031	32.609401624767	1
3	1034	32.687399247017	1
3	1058	33.583645408897	1
3	1070	34.0011664475	1
3	1073	34.00194228208	1
3	1084	34.30176628656	1
3	1095	34.523635978323	1
3	1108	34.827029086004	1
3	1129	36.222932756393	1
3	1132	36.24627128352	1
3	1142	36.424445262667	1
3	1145	36.49272962711	1
3	1175	37.080929595643	1
3	1186	37.227170755811	1
3	1197	37.503903185776	1
3	1216	37.832303759415	1
3	1231	38.347992472222	1
3	1234	38.424118586097	1
3	1245	38.656327682267	1
3	1248	38.701685773111	1
3	1250	38.7120260708	1
3	1280	39.666983428161	1
3	1283	39.698658435819	1
3	1289	39.82902813869	1
3	1293	39.870387165521	1
3	1305	40.095456796456	1
3	1312	40.196727058094	1
3	1314	40.219207870647	1
3	1360	41.391704394648	1
3	1368	41.504424816321	1
3	1380	41.854087700512	1
3	1386	41.94374663893	1
3	1407	42.537491539682	1
3	1421	43.540466814291	1
3	1428	43.832681709932	1
3	1440	43.998459100006	1
3	1454	44.351551104924	1
3	1462	44.521073685165	1
3	1479	45.105851681506	1
3	1486	45.231690327682	1
3	1508	46.146225488028	1
3	1511	46.222201992195	1
3	1531	47.075350190629	1
3	1544	47.541899739976	1
3	1557	48.151560630723	1
3	1575	49.069065397697	1
3	1578	49.103694315169	1
3	1591	49.507156779867	1
3	1601	49.663931088675	1
3	1611	49.857132774623	1
3	1614	49.869786959262	1
3	1628	50.162219201928	1
3	1642	50.438875903205	1
3	1647	50.523591685691	1
3	1672	51.080208992983	1
3	1678	51.13999782262	1
3	1680	51.158371761929	1
3	1704	51.790736488651	1
3	1707	51.863913650683	1
3	1728	52.516553944024	1
3	1735	52.675762977097	1
3	1749	53.036939134134	1
3	1754	53.134973688025	1
3	1759	53.185425630498	1
3	1779	53.740235862259	1
3	1782	53.808297522637	1
3	1790	53.960201408329	1
3	1797	54.094601075372	1
3	1815	54.4510895663	1
3	1840	55.544724399695	1
3	1847	55.782746539651	1
3	1853	55.8726754496	1
3	1866	56.179229318657	1
3	1886	56.953972334266	1
3	1900	57.934602640466	1
3	1918	58.878563866715	1
3	1933	59.884542398286	1
3	1936	59.915673500392	1
3	1938	59.957126529581	1
3	1959	60.540942001076	1
3	1977	61.190209687543	1
3	1998	63.006913620389	1
3	2005	63.155555460363	1
3	2013	63.307798867658	1
3	2016	63.344996913631	1
3	2028	63.576614794099	1
3	2039	63.745857105585	1
3	2057	64.220212142576	1
3	2070	64.470138119813	1
3	2076	64.633395215021	1
3	2101	65.769789368397	1
3	2104	65.782316011469	1
3	2110	65.944869777612	1
3	2114	66.002849701874	1
3	2116	66.007205993856	1
3	2123	66.143062332216	1
3	2151	66.830469831271	1
3	2157	66.874221711103	1
3	2159	66.915445631443	1
3	2169	67.07147382312	1
3	2181	67.299231917781	1
3	2202	67.717831631819	1
3	2224	68.381777035081	1
3	2242	68.931759357901	1
3	2249	69.184832547747	1
3	2260	69.39164675015	1
3	2272	69.598737674457	1
3	2292	70.834868525403	1
3	2305	71.399006521856	1
3	2312	71.649189011518	1
3	2315	71.656399765385	1
3	2328	71.889403361057	1
3	2342	72.186930861826	1
3	2345	72.206143097603	1
3	2357	72.391636312236	1
3	2363	72.490617886438	1
3	2399	73.963721165301	1
3	2411	74.457321258477	1
3	2424	75.023085838082	1
3	2434	75.368714164086	1
3	2437	75.388129589806	1
3	2456	75.87057923735	1
3	2459	75.944538104378	1
3	2487	77.483787018373	1
3	2494	77.694572627711	1
3	2509	78.006577985295	1
3	2523	78.431417827279	1
3	2530	78.67851111441	1
3	2540	78.819749829671	1
3	2545	78.905494207043	1
3	2555	79.061685504042	1
3	2568	79.360406455615	1
3	2590	80.250905062129	1
3	2603	80.783909504347	1
3	2622	81.858799232583	1
3	2635	82.479428113915	1
3	2642	82.66272938845	1
3	2645	82.759275703617	1
3	2669	83.560214915202	1
3	2686	84.235984758002	1
3	2692	84.376284229242	1
3	2695	84.43013871283	1
3	2698	84.460365674451	1
3	2720	84.959691643103	1
3	2735	85.221513673933	1
3	2755	86.170435909831	1
3	2765	86.548889595108	1
3	2780	86.989436119005	1
3	2798	87.771609007724	1
3	2801	87.819567678603	1
3	2822	88.994489238629	1
3	2825	89.040154066029	1
3	2841	89.554438216888	1
3	2854	89.879817672075	1
3	2872	90.377997065433	1
3	2888	91.816590062279	1
3	2900	92.249905279959	1
3	2918	93.071841692845	1
3	2931	93.495048515223	1
3	2937	93.600925725261	1
3	2954	94.111274746333	1
3	2968	94.429127757756	1
3	2985	95.711244723435	1
3	2991	95.853515624745	1
3	3000	96.017297762419	1
3	3011	96.223690924435	1
3	3014	96.254038436513	1
3	3031	96.61643811258	1
3	3036	96.71232546147	1
3	3047	96.858644742026	1
3	3052	96.946272192234	1
3	3078	97.596851166164	1
3	3086	97.755025848024	1
3	3102	98.101417983961	1
3	3120	98.683253235285	1
3	3123	98.761434203791	1
3	3125	98.78312640527	1
3	3133	98.950983293722	1
3	3141	99.160063091182	1
3	3154	99.419522716349	1
3	3176	100.006668366454	1
3	3193	100.400449194207	1
3	3200	100.507846376226	1
3	3210	100.623435313699	1
3	3213	100.646360324601	1
3	3234	101.136404981488	1
3	3239	101.233429864273	1
3	3257	101.656645359616	1
3	3260	101.687763239452	1
3	3265	101.723096932908	1
3	3288	102.300282428136	1
3	3291	102.337932766901	1
3	3301	102.403253589721	1
3	3310	102.550796477851	1
3	3314	102.626865897252	1
3	3339	103.227047792847	1
3	3361	103.816960969917	1
3	3375	104.721905229483	1
3	3388	105.303687524756	1
3	3401	105.800493966796	1
3	3411	106.112019216477	1
3	3426	106.851442938321	1
3	3444	107.713137139962	1
3	3457	108.386936992381	1
3	3460	108.408526978876	1
3	3463	108.473931444704	1
3	3490	109.647240403752	1
3	3500	109.954818940591	1
3	3509	110.251003146664	1
3	3521	110.402150821924	1
3	3526	110.528248376892	1
3	3546	110.997913321856	1
3	3565	111.609367098765	1
3	3568	111.619656666536	1
3	3579	111.996640702406	1
3	3584	112.063107251878	1
3	3610	113.569917670167	1
3	3614	113.620227418178	1
3	3616	113.660028378997	1
3	3644	115.033275942855	1
3	3658	115.337667414249	1
3	3675	116.278860699316	1
3	3681	116.50294074187	1
3	3699	116.931665077536	1
3	3713	117.301381005277	1
3	3729	118.26372380932	1
3	3732	118.360633896876	1
3	3749	118.828342003276	1
3	3752	118.839410717996	1
3	3760	119.00928100988	1
3	3770	119.284301256015	1
3	3784	120.055854968913	1
3	3791	120.214640860001	1
3	3805	120.514938349503	1
3	3832	121.294988477064	1
3	3845	121.913867704884	1
3	3852	122.129108962546	1
3	3855	122.164167515646	1
3	3866	122.354010790428	1
3	3869	122.400681731941	1
3	3882	122.751429361496	1
3	3901	123.201464792912	1
3	3914	123.463628107795	1
3	3918	123.545148374176	1
3	3949	124.682516177748	1
3	3956	124.840064169905	1
3	3973	125.384644939961	1
3	3987	126.398260889962	1
3	3994	126.638556870158	1
3	4016	127.113058271285	1
3	4019	127.196066961006	1
3	4027	127.39138114872	1
3	4043	127.715586506139	1
3	4046	127.779108512151	1
3	4067	128.262323326942	1
3	4076	128.525411118372	1
3	4094	129.018921323477	1
3	4097	129.059383876682	1
3	4120	130.822183108456	1
3	4136	131.247818574415	1
3	4140	131.334106625018	1
3	4158	131.871299065539	1
3	4165	132.065372056286	1
3	4182	132.751129997851	1
3	4189	132.944115286242	1
3	4205	133.368104710971	1
3	4212	133.502390583823	1
3	4234	134.311869931064	1
3	4240	134.470999129899	1
3	4257	134.977496169341	1
3	4264	135.204987512864	1
3	4281	135.703861923016	1
3	4288	135.977241156957	1
3	4294	136.00524987734	1
3	4302	136.113119210442	1
3	4304	136.149656637826	1
3	4308	136.200158302572	1
3	4315	136.314141507121	1
3	4322	136.439922059738	1
3	4328	136.497823451982	1
3	4331	136.549181869076	1
3	4336	136.589936611567	1
3	4343	136.723736758028	1
3	4355	136.952020945985	1
3	4372	137.349930147228	1
3	4383	137.486701016871	1
3	4399	137.808578253451	1
3	4419	138.226685819714	1
3	4465	140.28723150251	1
3	4472	140.481412995694	1
3	4485	140.769484460499	1
3	4505	141.425108590011	1
3	4512	141.703596950029	1
3	4524	141.924438022304	1
3	4539	142.284307716159	1
3	4554	142.976163601548	1
3	4567	143.43029289601	1
3	4570	143.452317540877	1
3	4581	143.78713708802	1
3	4586	143.842297926827	1
3	4601	144.153079173533	1
3	4615	144.519057966246	1
3	4630	144.844166119641	1
3	4638	145.015369799348	1
3	4647	145.168730140463	1
3	4657	145.385898112856	1
3	4676	145.911702403418	1
3	4679	145.951369218435	1
3	4690	146.276122233357	1
3	4696	146.344583283935	1
3	4703	146.474065599203	1
3	4718	146.77343126484	1
3	4721	146.872087039769	1
3	4734	147.152318873337	1
3	4740	147.178195387265	1
3	4752	147.399684185401	1
3	4761	147.549237579479	1
3	4785	148.198636468981	1
3	4788	148.20316243187	1
3	4795	148.327411995742	1
3	4799	148.390794372729	1
3	4817	148.741786642213	1
3	4820	148.763579497282	1
3	4831	148.946227816356	1
3	4839	149.060308965986	1
3	4852	149.286532606468	1
3	4860	149.436409617916	1
3	4885	150.150193412687	1
3	4898	150.463297751634	1
3	4909	150.629273930715	1
3	4929	151.151373565047	1
3	4937	151.382689541052	1
3	4953	151.725750689856	1
3	4956	151.778695874409	1
3	4963	151.839586642215	1
3	4965	151.867040899232	1
3	4994	152.651768746313	1
3	5008	153.059532293669	1
3	5021	153.518566252578	1
3	5034	154.118868602166	1
3	5040	154.35991120333	1
3	5053	154.695540468344	1
3	5066	155.056675521075	1
3	5085	155.849125043908	1
3	5092	156.098422771513	1
3	5107	156.446910875366	1
3	5113	156.511371445995	1
3	5131	157.07524087233	1
3	5142	157.434245798521	1
3	5150	157.591577171432	1
3	5170	159.144501831833	1
3	5173	159.154338385621	1
3	5194	159.669226532446	1
3	5210	160.596634124928	1
3	5213	160.66672474918	1
3	5224	160.956227318515	1
3	5229	161.000877143555	1
3	5253	161.667183124206	1
3	5267	162.599637553511	1
3	5273	162.795856142888	1
3	5295	163.639016205574	1
3	5308	164.073276744928	1
3	5320	164.557340150597	1
3	5334	165.259157401029	1
3	5346	165.75942414737	1
3	5353	165.954374436417	1
3	5356	166.008334789883	1
3	5386	167.337112896323	1
3	5399	167.921968665935	1
3	5409	168.293059700028	1
3	5414	168.367798329877	1
3	5419	168.454950229044	1
3	5424	168.513791199253	1
3	5426	168.521487522525	1
3	5437	168.704430436633	1
3	5450	169.082964683244	1
3	5453	169.083098723747	1
3	5459	169.166518037005	1
3	5478	169.820204815816	1
3	5484	169.929887971281	1
3	5486	169.991383829488	1
3	5515	170.545856470675	1
3	5532	171.016325077237	1
3	5537	171.03784120397	1
3	5552	171.343900525318	1
3	5559	171.489260307147	1
3	5577	172.004042771073	1
3	5592	172.297891429069	1
3	5606	172.618587205772	1
3	5619	172.991119239931	1
3	5643	174.130807719531	1
3	5650	174.370721347353	1
3	5662	174.537908794886	1
3	5673	174.83428652448	1
3	5684	175.074801512504	1
3	5705	176.436367924304	1
3	5711	176.580918417408	1
3	5732	177.080011593872	1
3	5745	177.555210018317	1
3	5762	179.565638030719	1
3	5773	179.690722282531	1
3	5795	180.550944170673	1
3	5807	181.11212983231	1
3	5826	182.042483047561	1
3	5829	182.073937464853	1
3	5831	182.112274339036	1
3	5836	182.206335903862	1
3	5838	182.213276413079	1
3	5848	182.415070313926	1
3	5854	182.513839237856	1
3	5860	182.560993816834	1
3	5863	182.571929033487	1
3	5869	182.651358290497	1
3	5872	182.717705773677	1
3	5891	183.3625004016	1
3	5919	183.97810466792	1
3	5926	184.141171055096	1
3	5953	185.083879739944	1
3	5956	185.170250180928	1
3	5988	185.920956423873	1
3	6011	186.576039373638	1
3	6014	186.581531429353	1
3	6030	186.881323252731	1
3	6035	187.002677060523	1
3	6048	187.354198716183	1
3	6068	187.881161107669	1
3	6088	188.650314652998	1
3	6094	188.883630407402	1
3	6112	189.321697523906	1
3	6125	189.851216572849	1
3	6131	189.959029898447	1
3	6157	191.957436265914	1
3	6160	191.960850776258	1
3	6162	191.992783737842	1
3	6175	192.271844370662	1
3	6178	192.331620721734	1
3	6197	192.761903814883	1
3	6208	192.97699121352	1
3	6232	193.55040467462	1
3	6249	194.752179411352	1
3	6252	194.826215488455	1
3	6254	194.827935928781	1
3	6269	195.179933579357	1
3	6276	195.255067702095	1
3	6302	196.231420401314	1
3	6308	196.424433909541	1
3	6312	196.52896395015	1
3	6326	197.314278951418	1
3	6333	197.435375461003	1
3	6353	197.959071987161	1
3	6363	198.153149048334	1
3	6370	198.245860476015	1
3	6384	198.542210645196	1
3	6390	198.615270682819	1
4	7	0.087856992192	1
4	10	0.107723332959	1
4	34	0.823777783242	1
4	47	1.446707198619	1
4	50	1.527759485918	1
4	56	1.686009576054	2
4	71	2.563989467379	3
4	100	3.92361729734	1
4	107	4.158199226058	1
4	110	4.191139137606	2
4	123	4.522270639911	3
4	130	4.699161120275	2
4	150	5.207375288622	1
4	160	5.360384608913	1
4	171	5.616122168926	1
4	187	5.849493078192	2
4	195	5.97273320139	1
4	222	7.614523570689	1
4	225	7.687292658748	1
4	244	8.265397494041	1
4	247	8.294863175281	1
4	258	8.661760216099	1
4	277	9.131142660967	1
4	294	9.730298490325	1
4	300	9.934054186594	1
4	307	10.031278966658	1
4	312	10.091599136589	1
4	331	10.597525377366	1
4	354	11.339434011982	1
4	357	11.380575261141	1
4	362	11.492688790369	1
4	367	11.572611472865	1
4	378	11.759804295575	1
4	381	11.804186360201	1
4	389	11.927068024952	2
4	415	12.663097046349	3
4	430	13.009940641585	1
4	442	13.269520062536	1
4	456	13.573010127838	1
4	467	13.810149679565	1
4	484	14.130789489591	1
4	502	14.591490093033	1
4	508	14.699640041377	1
4	511	14.704780874439	1
4	516	14.822042602668	1
4	518	14.856347211501	2
4	525	14.958714448991	2
4	550	15.571876096645	1
4	561	15.710772984947	1
4	583	16.338223723274	1
4	588	16.392710622383	1
4	611	17.173013588239	1
4	615	17.23638381183	1
4	635	18.346026306061	1
4	650	19.508834266599	1
4	661	19.797242697141	1
4	681	20.925838695362	1
4	684	20.95905853321	1
4	689	21.03212653551	1
4	721	22.963669197701	1
4	724	22.972281591855	1
4	731	23.199411369809	1
4	738	23.279510360296	2
4	753	23.683730526241	3
4	767	24.104938602396	2
4	782	24.753804493207	3
4	801	25.282977795382	1
4	815	25.61808104735	1
4	818	25.626201098165	2
4	830	25.916089035664	3
4	845	26.217772018513	1
4	852	26.378464915345	1
4	855	26.379040147334	1
4	872	26.790007123509	1
4	884	27.043610581857	2
4	900	27.636416519095	3
4	914	27.993795371567	1
4	939	28.903404773762	1
4	955	30.388182891915	1
4	958	30.390195941243	1
4	968	30.495156170243	1
4	983	30.941394323519	1
4	1006	31.509094650058	1
4	1016	31.894021281637	1
4	1032	32.609401624767	1
4	1035	32.687399247017	1
4	1059	33.583645408897	1
4	1071	34.0011664475	1
4	1074	34.00194228208	1
4	1085	34.30176628656	1
4	1096	34.523635978323	1
4	1109	34.827029086004	1
4	1130	36.222932756393	1
4	1133	36.24627128352	1
4	1143	36.424445262667	2
4	1146	36.49272962711	2
4	1176	37.080929595643	1
4	1187	37.227170755811	1
4	1198	37.503903185776	1
4	1217	37.832303759415	1
4	1232	38.347992472222	1
4	1235	38.424118586097	1
4	1246	38.656327682267	1
4	1249	38.701685773111	1
4	1251	38.7120260708	2
4	1281	39.666983428161	2
4	1284	39.698658435819	2
4	1290	39.82902813869	2
4	1294	39.870387165521	2
4	1306	40.095456796456	1
4	1313	40.196727058094	1
4	1315	40.219207870647	2
4	1361	41.391704394648	1
4	1369	41.504424816321	1
4	1381	41.854087700512	1
4	1387	41.94374663893	1
4	1408	42.537491539682	1
4	1422	43.540466814291	1
4	1429	43.832681709932	1
4	1441	43.998459100006	1
4	1455	44.351551104924	1
4	1463	44.521073685165	1
4	1480	45.105851681506	1
4	1487	45.231690327682	1
4	1509	46.146225488028	1
4	1512	46.222201992195	1
4	1532	47.075350190629	1
4	1545	47.541899739976	1
4	1558	48.151560630723	1
4	1576	49.069065397697	1
4	1579	49.103694315169	1
4	1592	49.507156779867	1
4	1602	49.663931088675	1
4	1612	49.857132774623	1
4	1615	49.869786959262	1
4	1629	50.162219201928	1
4	1643	50.438875903205	1
4	1648	50.523591685691	1
4	1673	51.080208992983	1
4	1679	51.13999782262	1
4	1681	51.158371761929	2
4	1705	51.790736488651	1
4	1708	51.863913650683	1
4	1729	52.516553944024	1
4	1736	52.675762977097	1
4	1750	53.036939134134	1
4	1755	53.134973688025	1
4	1760	53.185425630498	1
4	1780	53.740235862259	2
4	1783	53.808297522637	2
4	1791	53.960201408329	1
4	1798	54.094601075372	1
4	1816	54.4510895663	1
4	1841	55.544724399695	1
4	1848	55.782746539651	1
4	1854	55.8726754496	1
4	1867	56.179229318657	1
4	1887	56.953972334266	1
4	1901	57.934602640466	1
4	1919	58.878563866715	1
4	1934	59.884542398286	1
4	1937	59.915673500392	1
4	1939	59.957126529581	2
4	1960	60.540942001076	1
4	1978	61.190209687543	1
4	1999	63.006913620389	1
4	2006	63.155555460363	1
4	2014	63.307798867658	1
4	2017	63.344996913631	1
4	2029	63.576614794099	1
4	2040	63.745857105585	1
4	2058	64.220212142576	1
4	2071	64.470138119813	2
4	2077	64.633395215021	1
4	2102	65.769789368397	1
4	2105	65.782316011469	1
4	2111	65.944869777612	1
4	2115	66.002849701874	1
4	2117	66.007205993856	2
4	2124	66.143062332216	2
4	2152	66.830469831271	1
4	2158	66.874221711103	1
4	2160	66.915445631443	2
4	2170	67.07147382312	3
4	2182	67.299231917781	4
4	2203	67.717831631819	1
4	2225	68.381777035081	1
4	2243	68.931759357901	1
4	2250	69.184832547747	1
4	2261	69.39164675015	1
4	2273	69.598737674457	1
4	2293	70.834868525403	1
4	2306	71.399006521856	1
4	2313	71.649189011518	1
4	2316	71.656399765385	1
4	2329	71.889403361057	1
4	2343	72.186930861826	1
4	2346	72.206143097603	2
4	2358	72.391636312236	3
4	2364	72.490617886438	3
4	2400	73.963721165301	1
4	2412	74.457321258477	1
4	2425	75.023085838082	1
4	2435	75.368714164086	1
4	2438	75.388129589806	1
4	2457	75.87057923735	1
4	2460	75.944538104378	1
4	2488	77.483787018373	1
4	2495	77.694572627711	1
4	2510	78.006577985295	1
4	2524	78.431417827279	1
4	2531	78.67851111441	1
4	2541	78.819749829671	1
4	2546	78.905494207043	1
4	2556	79.061685504042	1
4	2569	79.360406455615	1
4	2591	80.250905062129	1
4	2604	80.783909504347	1
4	2623	81.858799232583	1
4	2636	82.479428113915	1
4	2643	82.66272938845	1
4	2646	82.759275703617	1
4	2670	83.560214915202	1
4	2687	84.235984758002	1
4	2693	84.376284229242	1
4	2696	84.43013871283	1
4	2699	84.460365674451	2
4	2721	84.959691643103	1
4	2736	85.221513673933	1
4	2756	86.170435909831	1
4	2766	86.548889595108	1
4	2781	86.989436119005	1
4	2799	87.771609007724	1
4	2802	87.819567678603	1
4	2823	88.994489238629	1
4	2826	89.040154066029	1
4	2842	89.554438216888	1
4	2855	89.879817672075	1
4	2873	90.377997065433	1
4	2889	91.816590062279	1
4	2901	92.249905279959	1
4	2919	93.071841692845	1
4	2932	93.495048515223	1
4	2938	93.600925725261	1
4	2955	94.111274746333	1
4	2969	94.429127757756	1
4	2986	95.711244723435	1
4	2992	95.853515624745	1
4	3001	96.017297762419	1
4	3012	96.223690924435	1
4	3015	96.254038436513	1
4	3032	96.61643811258	1
4	3037	96.71232546147	2
4	3048	96.858644742026	3
4	3053	96.946272192234	3
4	3079	97.596851166164	1
4	3087	97.755025848024	1
4	3103	98.101417983961	1
4	3121	98.683253235285	1
4	3124	98.761434203791	1
4	3126	98.78312640527	2
4	3134	98.950983293722	2
4	3142	99.160063091182	3
4	3155	99.419522716349	4
4	3177	100.006668366454	1
4	3194	100.400449194207	1
4	3201	100.507846376226	1
4	3211	100.623435313699	1
4	3214	100.646360324601	1
4	3235	101.136404981488	1
4	3240	101.233429864273	1
4	3258	101.656645359616	1
4	3261	101.687763239452	1
4	3266	101.723096932908	2
4	3289	102.300282428136	1
4	3292	102.337932766901	2
4	3302	102.403253589721	3
4	3311	102.550796477851	2
4	3315	102.626865897252	2
4	3340	103.227047792847	1
4	3362	103.816960969917	1
4	3376	104.721905229483	1
4	3389	105.303687524756	1
4	3402	105.800493966796	1
4	3412	106.112019216477	1
4	3427	106.851442938321	1
4	3445	107.713137139962	1
4	3458	108.386936992381	1
4	3461	108.408526978876	1
4	3464	108.473931444704	2
4	3491	109.647240403752	1
4	3501	109.954818940591	1
4	3510	110.251003146664	1
4	3522	110.402150821924	1
4	3527	110.528248376892	1
4	3547	110.997913321856	1
4	3566	111.609367098765	1
4	3569	111.619656666536	1
4	3580	111.996640702406	1
4	3585	112.063107251878	1
4	3611	113.569917670167	1
4	3615	113.620227418178	1
4	3617	113.660028378997	2
4	3645	115.033275942855	1
4	3659	115.337667414249	1
4	3676	116.278860699316	1
4	3682	116.50294074187	1
4	3700	116.931665077536	1
4	3714	117.301381005277	1
4	3730	118.26372380932	1
4	3733	118.360633896876	1
4	3750	118.828342003276	1
4	3753	118.839410717996	1
4	3761	119.00928100988	1
4	3771	119.284301256015	2
4	3785	120.055854968913	3
4	3792	120.214640860001	2