version 3
run BaseVersion-9-20240511-20:45:07-11874
attr configname BaseVersion
attr datetime 20240511-20:45:07
attr datetimef 20240511-204507
attr experiment BaseVersion
attr inifile omnetpp.ini
attr iterationvars $genInterval=0.55
attr iterationvarsd genInterval=0.55
attr iterationvarsf genInterval=0.55-
attr measurement $genInterval=0.55
attr network Network
attr processid 11874
attr repetition 0
attr replication #0
attr resultdir results
attr runnumber 9
attr seedset 9
itervar genInterval 0.55
config network Network
config sim-time-limit 200s
config Network.nodeTx.gen.generationInterval exponential(0.55)
config Network.nodeTx.gen.packetByteSize 12500
config Network.nodeTx.queue.bufferSize 200
config Network.nodeRx.queue.bufferSize 200
config Network.queue.bufferSize 200

vector 0 Network.nodeTx.gen packetGen ETV
vector 1 Network.nodeTx.queue bufferSize ETV
vector 2 Network.queue bufferSize ETV
vector 3 Network.nodeRx.queue bufferSize ETV
vector 4 Network.nodeRx.sink Delay ETV
vector 5 Network.nodeRx.sink packetUsed ETV
0	1	0.005735589651	1
0	10	0.255040613964	1
0	21	0.638337493436	1
0	32	1.01861267591	1
0	43	1.395213794696	1
0	46	1.399378225901	1
0	50	1.478398675955	1
0	60	1.687467622076	1
0	66	1.771771988298	1
0	68	1.779148338008	1
0	80	1.914786704006	1
0	104	3.068340748444	1
0	113	3.366527859708	1
0	116	3.447901033795	1
0	128	3.604735460569	1
0	133	3.686801908444	1
0	138	3.735094130812	1
0	154	4.012289792856	1
0	164	4.245424683726	1
0	176	4.620806807974	1
0	182	4.72115606059	1
0	194	4.929810561191	1
0	210	6.089390637913	1
0	219	6.346970446686	1
0	232	8.005331082799	1
0	243	8.735035824424	1
0	246	8.756771311182	1
0	262	10.648235780047	1
0	273	11.30878680368	1
0	284	11.973818020816	1
0	295	12.441542940604	1
0	298	12.521577505269	1
0	314	13.77714627502	1
0	317	13.857551098459	1
0	333	14.462171289089	1
0	344	16.118775227851	1
0	355	16.555318081127	1
0	366	16.998244780326	1
0	377	17.664898189836	1
0	388	19.243454772314	1
0	397	19.512150559935	1
0	410	20.058322320797	1
0	421	20.710404951503	1
0	432	21.168065323333	1
0	443	22.126291469566	1
0	454	22.687540413583	1
0	463	23.03224674988	1
0	476	23.828783168161	1
0	487	25.380987306096	1
0	496	25.639673554811	1
0	509	26.535246145612	1
0	520	27.523899311071	1
0	531	29.776644751569	1
0	534	29.837324112576	1
0	539	29.939564402869	1
0	546	29.985015525417	1
0	562	30.389942879636	1
0	565	30.428480268769	1
0	584	32.02891107331	1
0	593	32.40030810059	1
0	606	32.976988618984	1
0	612	33.106264833085	1
0	627	34.190904916081	1
0	638	35.617192947859	1
0	649	37.561532808134	1
0	660	39.730197215345	1
0	666	39.843074833572	1
0	681	40.452223971622	1
0	687	40.605423636479	1
0	702	41.084847230711	1
0	713	42.221548390874	1
0	724	43.091330093227	1
0	735	44.393408159652	1
0	738	44.419712275651	1
0	754	45.200694073309	1
0	765	45.678160246571	1
0	774	45.912475654574	1
0	777	45.955063992894	1
0	791	46.297578380348	1
0	796	46.393518602294	1
0	811	46.91216218028	1
0	822	47.226065126155	1
0	833	47.603221094294	1
0	846	48.098672898523	1
0	855	48.4561937498	1
0	860	48.539247498266	1
0	872	48.853799727161	1
0	886	50.114329632493	1
0	897	51.238181196403	1
0	908	53.355662078659	1
0	914	53.469768049746	1
0	929	54.93030550159	1
0	940	55.570344936559	1
0	949	55.844721219135	1
0	962	56.513414777696	1
0	968	56.70127299162	1
0	983	58.127389134818	1
0	992	58.336883088731	1
0	995	58.359022928789	1
0	1013	60.743115695115	1
0	1024	61.316005547291	1
0	1027	61.340093846085	1
0	1041	61.899036968451	1
0	1049	62.00159387754	1
0	1062	62.342228076934	1
0	1070	62.522697446015	1
0	1076	62.55268286207	1
0	1089	62.836778181703	1
0	1092	62.858412143873	1
0	1109	63.474402222671	1
0	1117	63.57657307123	1
0	1126	63.727229844717	1
0	1142	64.597628117393	1
0	1148	64.705075344898	1
0	1154	64.802678702202	1
0	1159	64.878234680303	1
0	1165	64.960381215078	1
0	1169	65.000345697897	1
0	1185	65.239750044489	1
0	1199	65.794935751016	1
0	1211	66.159373988366	1
0	1225	67.281999143433	1
0	1236	67.940049804542	1
0	1245	68.180585325673	1
0	1258	69.068965612403	1
0	1261	69.088436415453	1
0	1266	69.259102415118	1
0	1285	70.089904345302	1
0	1296	71.411082769121	1
0	1305	71.767257631141	1
0	1308	71.779980484075	1
0	1312	71.820616165093	1
0	1326	72.079226197067	1
0	1344	73.363913121976	1
0	1350	73.4863900442	1
0	1365	74.383371985003	1
0	1374	74.614248156529	1
0	1377	74.616764017166	1
0	1391	74.939717956908	1
0	1399	75.074736539827	1
0	1413	75.453924857927	1
0	1426	76.173172934867	1
0	1435	76.467437601357	1
0	1446	76.679354064927	1
0	1452	76.811972370335	1
0	1467	77.249770564798	1
0	1475	77.384059971539	1
0	1478	77.404665865178	1
0	1486	77.55006690675	1
0	1506	78.48481249314	1
0	1517	79.20308634108	1
0	1528	79.604422053614	1
0	1537	79.900165322972	1
0	1550	80.303291735	1
0	1561	80.785545637734	1
0	1572	81.781065338252	1
0	1581	82.156101575983	1
0	1584	82.160599693758	1
0	1598	82.469810270231	1
0	1608	82.695902170789	1
0	1622	83.425830341371	1
0	1633	83.896004787994	1
0	1644	84.342834921457	1
0	1647	84.422553155059	1
0	1657	84.62079520262	1
0	1662	84.708106325822	1
0	1681	86.651545009717	1
0	1684	86.682288352868	1
0	1689	86.82236740559	1
0	1706	87.269890346758	1
0	1709	87.352056330503	1
0	1727	89.164300769262	1
0	1738	89.689185876906	1
0	1749	90.382548617841	1
0	1758	90.754972290349	1
0	1771	91.216920198489	1
0	1777	91.328186925045	1
0	1792	92.181133779264	1
0	1795	92.244801455917	1
0	1811	94.894598351672	1
0	1822	95.321181897241	1
0	1825	95.343421671752	1
0	1835	95.531248798924	1
0	1843	95.713025312009	1
0	1850	95.772843131275	1
0	1867	96.434993149427	1
0	1878	96.805981764087	1
0	1883	96.894875118514	1
0	1899	97.444831951846	1
0	1910	98.365467438744	1
0	1913	98.386757297931	1
0	1915	98.403438502192	1
0	1933	98.784788174041	1
0	1947	99.780798644406	1
0	1950	99.828780976623	1
0	1960	100.069496181495	1
0	1976	100.931315834032	1
0	1987	101.424870884483	1
0	1998	102.205302425154	1
0	2001	102.209324260412	1
0	2006	102.376624216306	1
0	2025	103.29413643136	1
0	2028	103.352609658503	1
0	2044	104.894247903679	1
0	2055	106.264429435212	1
0	2058	106.359685766016	1
0	2072	106.76046633657	1
0	2085	108.92722152847	1
0	2088	109.006057952579	1
0	2104	110.27412990171	1
0	2107	110.339797338888	1
0	2112	110.379087188191	1
0	2131	111.392677571025	1
0	2142	112.115768965231	1
0	2153	112.550171459994	1
0	2162	112.88431940099	1
0	2170	113.050683286168	1
0	2185	113.836478681595	1
0	2196	114.308164393295	1
0	2207	115.020622311182	1
0	2216	115.227786859308	1
0	2229	116.137180430469	1
0	2240	116.999804405496	1
0	2249	117.248705272535	1
0	2260	117.622388043632	1
0	2273	119.024990806319	1
0	2284	120.871306100842	1
0	2295	121.303942291746	1
0	2306	121.707982891085	1
0	2309	121.731392607399	1
0	2325	123.014689401659	1
0	2336	124.192781499912	1
0	2342	124.350863338053	1
0	2357	124.812598188508	1
0	2368	125.217988082523	1
0	2371	125.225851638911	1
0	2383	125.613439433631	1
0	2397	126.078152392566	1
0	2408	127.000518319952	1
0	2419	128.025699058335	1
0	2422	128.067505248262	1
0	2424	128.11117629993	1
0	2446	129.106209797693	1
0	2457	129.933146209135	1
0	2468	130.83011015497	1
0	2479	131.608606015788	1
0	2488	131.895385345775	1
0	2501	132.814523227174	1
0	2504	132.834945934549	1
0	2520	133.560329425693	1
0	2531	134.362123837926	1
0	2534	134.381060174291	1
0	2550	135.005908865383	1
0	2561	135.869133328086	1
0	2572	137.25096905486	1
0	2583	137.722202380607	1
0	2594	138.17397376327	1
0	2603	138.537505630598	1
0	2616	140.425807092063	1
0	2619	140.494188958826	1
0	2629	140.696987651136	1
0	2645	142.368613522753	1
0	2654	142.596222764471	1
0	2662	142.787699454447	1
0	2677	143.509632004905	1
0	2683	143.61140885063	1
0	2698	144.276111146047	1
0	2704	144.443264878888	1
0	2719	145.154004467017	1
0	2725	145.350284009569	1
0	2740	146.584360908463	1
0	2743	146.624714303544	1
0	2759	147.318302357325	1
0	2765	147.501449023868	1
0	2780	148.131850451474	1
0	2791	149.920572567782	1
0	2802	150.939312247248	1
0	2813	153.058081670576	1
0	2824	153.627866684734	1
0	2830	153.799195534496	1
0	2839	153.997491408393	1
0	2844	154.015815787069	1
0	2863	154.986462938942	1
0	2874	157.01636785305	1
0	2880	157.170734228481	1
0	2895	157.808371958574	1
0	2906	158.477532318205	1
0	2917	159.015108880771	1
0	2928	159.437305324753	1
0	2931	159.525365730516	1
0	2943	159.789004010897	1
0	2955	160.076596926064	1
0	2961	160.184818727197	1
0	2976	160.500851163042	1
0	2989	161.694395602735	1
0	2998	161.920932302245	1
0	3001	161.966931793018	1
0	3006	162.09313040599	1
0	3027	162.988279650024	1
0	3036	163.324205285617	1
0	3049	163.956891378434	1
0	3060	164.806187449574	1
0	3069	165.147141317603	1
0	3082	165.895047619336	1
0	3093	166.494982604442	1
0	3104	166.989662198251	1
0	3110	167.172379943489	1
0	3123	167.5620087652	1
0	3136	168.649592501207	1
0	3147	169.518762504075	1
0	3153	169.626891652642	1
0	3166	169.993332586647	1
0	3179	170.470079292641	1
0	3182	170.471535249836	1
0	3194	170.814151825101	1
0	3206	171.130722691797	1
0	3219	171.745883233752	1
0	3222	171.758276003681	1
0	3234	172.113851625273	1
0	3246	172.513331148328	1
0	3259	174.18932432754	1
0	3270	175.569339776568	1
0	3281	176.624832018682	1
0	3292	177.067846583992	1
0	3303	178.326118145579	1
0	3312	178.567552920707	1
0	3315	178.581798840083	1
0	3333	180.3030988272	1
0	3336	180.39665601541	1
0	3350	180.820832079752	1
0	3361	181.17722058555	1
0	3369	181.302504060949	1
0	3384	182.032341061034	1
0	3390	182.163931808193	1
0	3401	182.406227282092	1
0	3413	182.800169683702	1
0	3426	183.25730440059	1
0	3429	183.339821053755	1
0	3434	183.36541567527	1
0	3453	184.096610776139	1
0	3464	184.659193592197	1
0	3475	186.364018325499	1
0	3486	186.992784559552	1
0	3497	187.71522423188	1
0	3506	187.992193815432	1
0	3509	188.003858609018	1
0	3511	188.084687573838	1
0	3535	189.520573729276	1
0	3544	189.816824866109	1
0	3552	190.015236942801	1
0	3567	190.752885324335	1
0	3578	191.674781211107	1
0	3589	192.15757659987	1
0	3598	192.373214863422	1
0	3611	193.555324912904	1
0	3620	193.878994264898	1
0	3633	194.354484594368	1
0	3644	195.693295685176	1
0	3650	195.801084103469	1
0	3665	196.78052231742	1
0	3676	197.273256142659	1
0	3687	198.115335449916	1
0	3690	198.14579636462	1
0	3700	198.37935936703	1
0	3716	199.127517772119	1
0	3727	199.721079909516	1
0	3733	199.844522721704	1
0	3739	199.944430365898	1
1	2	0.005735589651	1
1	11	0.255040613964	1
1	22	0.638337493436	1
1	33	1.01861267591	1
1	44	1.395213794696	1
1	47	1.399378225901	1
1	51	1.478398675955	2
1	61	1.687467622076	1
1	67	1.771771988298	1
1	69	1.779148338008	2
1	81	1.914786704006	1
1	105	3.068340748444	1
1	114	3.366527859708	1
1	117	3.447901033795	1
1	129	3.604735460569	1
1	134	3.686801908444	1
1	139	3.735094130812	1
1	155	4.012289792856	1
1	165	4.245424683726	1
1	177	4.620806807974	1
1	183	4.72115606059	1
1	195	4.929810561191	1
1	211	6.089390637913	1
1	220	6.346970446686	1
1	233	8.005331082799	1
1	244	8.735035824424	1
1	247	8.756771311182	1
1	263	10.648235780047	1
1	274	11.30878680368	1
1	285	11.973818020816	1
1	296	12.441542940604	1
1	299	12.521577505269	1
1	315	13.77714627502	1
1	318	13.857551098459	1
1	334	14.462171289089	1
1	345	16.118775227851	1
1	356	16.555318081127	1
1	367	16.998244780326	1
1	378	17.664898189836	1
1	389	19.243454772314	1
1	398	19.512150559935	1
1	411	20.058322320797	1
1	422	20.710404951503	1
1	433	21.168065323333	1
1	444	22.126291469566	1
1	455	22.687540413583	1
1	464	23.03224674988	1
1	477	23.828783168161	1
1	488	25.380987306096	1
1	497	25.639673554811	1
1	510	26.535246145612	1
1	521	27.523899311071	1
1	532	29.776644751569	1
1	535	29.837324112576	1
1	540	29.939564402869	1
1	547	29.985015525417	1
1	563	30.389942879636	1
1	566	30.428480268769	1
1	585	32.02891107331	1
1	594	32.40030810059	1
1	607	32.976988618984	1
1	613	33.106264833085	1
1	628	34.190904916081	1
1	639	35.617192947859	1
1	650	37.561532808134	1
1	661	39.730197215345	1
1	667	39.843074833572	1
1	682	40.452223971622	1
1	688	40.605423636479	1
1	703	41.084847230711	1
1	714	42.221548390874	1
1	725	43.091330093227	1
1	736	44.393408159652	1
1	739	44.419712275651	1
1	755	45.200694073309	1
1	766	45.678160246571	1
1	775	45.912475654574	1
1	778	45.955063992894	1
1	792	46.297578380348	1
1	797	46.393518602294	1
1	812	46.91216218028	1
1	823	47.226065126155	1
1	834	47.603221094294	1
1	847	48.098672898523	1
1	856	48.4561937498	1
1	861	48.539247498266	1
1	873	48.853799727161	1
1	887	50.114329632493	1
1	898	51.238181196403	1
1	909	53.355662078659	1
1	915	53.469768049746	1
1	930	54.93030550159	1
1	941	55.570344936559	1
1	950	55.844721219135	1
1	963	56.513414777696	1
1	969	56.70127299162	1
1	984	58.127389134818	1
1	993	58.336883088731	1
1	996	58.359022928789	1
1	1014	60.743115695115	1
1	1025	61.316005547291	1
1	1028	61.340093846085	1
1	1042	61.899036968451	1
1	1050	62.00159387754	1
1	1063	62.342228076934	1
1	1071	62.522697446015	1
1	1077	62.55268286207	1
1	1090	62.836778181703	1
1	1093	62.858412143873	1
1	1110	63.474402222671	1
1	1118	63.57657307123	1
1	1127	63.727229844717	1
1	1143	64.597628117393	1
1	1149	64.705075344898	1
1	1155	64.802678702202	1
1	1160	64.878234680303	1
1	1166	64.960381215078	1
1	1170	65.000345697897	2
1	1186	65.239750044489	1
1	1200	65.794935751016	1
1	1212	66.159373988366	1
1	1226	67.281999143433	1
1	1237	67.940049804542	1
1	1246	68.180585325673	1
1	1259	69.068965612403	1
1	1262	69.088436415453	1
1	1267	69.259102415118	1
1	1286	70.089904345302	1
1	1297	71.411082769121	1
1	1306	71.767257631141	1
1	1309	71.779980484075	1
1	1313	71.820616165093	2
1	1327	72.079226197067	1
1	1345	73.363913121976	1
1	1351	73.4863900442	1
1	1366	74.383371985003	1
1	1375	74.614248156529	1
1	1378	74.616764017166	1
1	1392	74.939717956908	1
1	1400	75.074736539827	1
1	1414	75.453924857927	1
1	1427	76.173172934867	1
1	1436	76.467437601357	1
1	1447	76.679354064927	1
1	1453	76.811972370335	1
1	1468	77.249770564798	1
1	1476	77.384059971539	1
1	1479	77.404665865178	1
1	1487	77.55006690675	1
1	1507	78.48481249314	1
1	1518	79.20308634108	1
1	1529	79.604422053614	1
1	1538	79.900165322972	1
1	1551	80.303291735	1
1	1562	80.785545637734	1
1	1573	81.781065338252	1
1	1582	82.156101575983	1
1	1585	82.160599693758	1
1	1599	82.469810270231	1
1	1609	82.695902170789	1
1	1623	83.425830341371	1
1	1634	83.896004787994	1
1	1645	84.342834921457	1
1	1648	84.422553155059	1
1	1658	84.62079520262	1
1	1663	84.708106325822	1
1	1682	86.651545009717	1
1	1685	86.682288352868	1
1	1690	86.82236740559	1
1	1707	87.269890346758	1
1	1710	87.352056330503	1
1	1728	89.164300769262	1
1	1739	89.689185876906	1
1	1750	90.382548617841	1
1	1759	90.754972290349	1
1	1772	91.216920198489	1
1	1778	91.328186925045	1
1	1793	92.181133779264	1
1	1796	92.244801455917	1
1	1812	94.894598351672	1
1	1823	95.321181897241	1
1	1826	95.343421671752	1
1	1836	95.531248798924	1
1	1844	95.713025312009	1
1	1851	95.772843131275	1
1	1868	96.434993149427	1
1	1879	96.805981764087	1
1	1884	96.894875118514	1
1	1900	97.444831951846	1
1	1911	98.365467438744	1
1	1914	98.386757297931	1
1	1916	98.403438502192	2
1	1934	98.784788174041	1
1	1948	99.780798644406	1
1	1951	99.828780976623	1
1	1961	100.069496181495	1
1	1977	100.931315834032	1
1	1988	101.424870884483	1
1	1999	102.205302425154	1
1	2002	102.209324260412	1
1	2007	102.376624216306	1
1	2026	103.29413643136	1
1	2029	103.352609658503	1
1	2045	104.894247903679	1
1	2056	106.264429435212	1
1	2059	106.359685766016	1
1	2073	106.76046633657	1
1	2086	108.92722152847	1
1	2089	109.006057952579	1
1	2105	110.27412990171	1
1	2108	110.339797338888	1
1	2113	110.379087188191	1
1	2132	111.392677571025	1
1	2143	112.115768965231	1
1	2154	112.550171459994	1
1	2163	112.88431940099	1
1	2171	113.050683286168	1
1	2186	113.836478681595	1
1	2197	114.308164393295	1
1	2208	115.020622311182	1
1	2217	115.227786859308	1
1	2230	116.137180430469	1
1	2241	116.999804405496	1
1	2250	117.248705272535	1
1	2261	117.622388043632	1
1	2274	119.024990806319	1
1	2285	120.871306100842	1
1	2296	121.303942291746	1
1	2307	121.707982891085	1
1	2310	121.731392607399	1
1	2326	123.014689401659	1
1	2337	124.192781499912	1
1	2343	124.350863338053	1
1	2358	124.812598188508	1
1	2369	125.217988082523	1
1	2372	125.225851638911	1
1	2384	125.613439433631	1
1	2398	126.078152392566	1
1	2409	127.000518319952	1
1	2420	128.025699058335	1
1	2423	128.067505248262	1
1	2425	128.11117629993	2
1	2447	129.106209797693	1
1	2458	129.933146209135	1
1	2469	130.83011015497	1
1	2480	131.608606015788	1
1	2489	131.895385345775	1
1	2502	132.814523227174	1
1	2505	132.834945934549	1
1	2521	133.560329425693	1
1	2532	134.362123837926	1
1	2535	134.381060174291	1
1	2551	135.005908865383	1
1	2562	135.869133328086	1
1	2573	137.25096905486	1
1	2584	137.722202380607	1
1	2595	138.17397376327	1
1	2604	138.537505630598	1
1	2617	140.425807092063	1
1	2620	140.494188958826	1
1	2630	140.696987651136	1
1	2646	142.368613522753	1
1	2655	142.596222764471	1
1	2663	142.787699454447	1
1	2678	143.509632004905	1
1	2684	143.61140885063	1
1	2699	144.276111146047	1
1	2705	144.443264878888	1
1	2720	145.154004467017	1
1	2726	145.350284009569	1
1	2741	146.584360908463	1
1	2744	146.624714303544	1
1	2760	147.318302357325	1
1	2766	147.501449023868	1
1	2781	148.131850451474	1
1	2792	149.920572567782	1
1	2803	150.939312247248	1
1	2814	153.058081670576	1
1	2825	153.627866684734	1
1	2831	153.799195534496	1
1	2840	153.997491408393	1
1	2845	154.015815787069	1
1	2864	154.986462938942	1
1	2875	157.01636785305	1
1	2881	157.170734228481	1
1	2896	157.808371958574	1
1	2907	158.477532318205	1
1	2918	159.015108880771	1
1	2929	159.437305324753	1
1	2932	159.525365730516	1
1	2944	159.789004010897	1
1	2956	160.076596926064	1
1	2962	160.184818727197	1
1	2977	160.500851163042	1
1	2990	161.694395602735	1
1	2999	161.920932302245	1
1	3002	161.966931793018	1
1	3007	162.09313040599	1
1	3028	162.988279650024	1
1	3037	163.324205285617	1
1	3050	163.956891378434	1
1	3061	164.806187449574	1
1	3070	165.147141317603	1
1	3083	165.895047619336	1
1	3094	166.494982604442	1
1	3105	166.989662198251	1
1	3111	167.172379943489	1
1	3124	167.5620087652	1
1	3137	168.649592501207	1
1	3148	169.518762504075	1
1	3154	169.626891652642	1
1	3167	169.993332586647	1
1	3180	170.470079292641	1
1	3183	170.471535249836	1
1	3195	170.814151825101	1
1	3207	171.130722691797	1
1	3220	171.745883233752	1
1	3223	171.758276003681	1
1	3235	172.113851625273	1
1	3247	172.513331148328	1
1	3260	174.18932432754	1
1	3271	175.569339776568	1
1	3282	176.624832018682	1
1	3293	177.067846583992	1
1	3304	178.326118145579	1
1	3313	178.567552920707	1
1	3316	178.581798840083	1
1	3334	180.3030988272	1
1	3337	180.39665601541	1
1	3351	180.820832079752	1
1	3362	181.17722058555	1
1	3370	181.302504060949	1
1	3385	182.032341061034	1
1	3391	182.163931808193	1
1	3402	182.406227282092	1
1	3414	182.800169683702	1
1	3427	183.25730440059	1
1	3430	183.339821053755	1
1	3435	183.36541567527	1
1	3454	184.096610776139	1
1	3465	184.659193592197	1
1	3476	186.364018325499	1
1	3487	186.992784559552	1
1	3498	187.71522423188	1
1	3507	187.992193815432	1
1	3510	188.003858609018	1
1	3512	188.084687573838	2
1	3536	189.520573729276	1
1	3545	189.816824866109	1
1	3553	190.015236942801	1
1	3568	190.752885324335	1
1	3579	191.674781211107	1
1	3590	192.15757659987	1
1	3599	192.373214863422	1
1	3612	193.555324912904	1
1	3621	193.878994264898	1
1	3634	194.354484594368	1
1	3645	195.693295685176	1
1	3651	195.801084103469	1
1	3666	196.78052231742	1
1	3677	197.273256142659	1
1	3688	198.115335449916	1
1	3691	198.14579636462	1
1	3701	198.37935936703	1
1	3717	199.127517772119	1
1	3728	199.721079909516	1
1	3734	199.844522721704	1
1	3740	199.944430365898	1
2	5	0.105835589651	1
2	14	0.355140613964	1
2	27	0.738437493436	1
2	38	1.11871267591	1
2	53	1.495313794696	1
2	56	1.595313794696	1
2	63	1.695313794696	1
2	71	1.795313794696	1
2	77	1.895313794696	1
2	83	1.995313794696	1
2	89	2.095313794696	1
2	108	3.168440748444	1
2	119	3.466627859708	1
2	124	3.566627859708	1
2	136	3.704835460569	1
2	143	3.804835460569	1
2	147	3.904835460569	1
2	158	4.112389792856	1
2	168	4.345524683726	1
2	180	4.720906807974	1
2	190	4.82125606059	1
2	200	5.029910561191	1
2	214	6.189490637913	1
2	223	6.447070446686	1
2	236	8.105431082799	1
2	249	8.835135824424	1
2	252	8.935135824424	1
2	266	10.748335780047	1
2	277	11.40888680368	1
2	288	12.073918020816	1
2	301	12.541642940604	1
2	304	12.641642940604	1
2	320	13.87724627502	1
2	323	13.97724627502	1
2	337	14.562271289089	1
2	348	16.218875227851	1
2	359	16.655418081127	1
2	370	17.098344780326	1
2	381	17.764998189836	1
2	392	19.343554772314	1
2	401	19.612250559935	1
2	414	20.158422320797	1
2	425	20.810504951503	1
2	436	21.268165323333	1
2	447	22.226391469566	1
2	458	22.787640413583	1
2	469	23.13234674988	1
2	480	23.928883168161	1
2	491	25.481087306096	1
2	500	25.739773554811	1
2	513	26.635346145612	1
2	524	27.623999311071	1
2	537	29.876744751569	1
2	542	29.976744751569	1
2	549	30.076744751569	1
2	553	30.176744751569	1
2	568	30.490042879636	1
2	573	30.590042879636	1
2	588	32.12901107331	1
2	599	32.50040810059	1
2	610	33.077088618984	1
2	619	33.206364833085	1
2	631	34.291004916081	1
2	642	35.717292947859	1
2	653	37.661632808134	1
2	664	39.830297215345	1
2	673	39.943174833572	1
2	685	40.552323971622	1
2	694	40.705523636479	1
2	706	41.184947230711	1
2	717	42.321648390874	1
2	728	43.191430093227	1
2	741	44.493508159652	1
2	744	44.593508159652	1
2	758	45.300794073309	1
2	769	45.778260246571	1
2	780	46.012575654574	1
2	785	46.112575654574	1
2	799	46.397678380348	1
2	802	46.497678380348	1
2	817	47.01226218028	1
2	828	47.326165126155	1
2	839	47.703321094294	1
2	850	48.198772898523	1
2	863	48.5562937498	1
2	866	48.6562937498	1
2	878	48.953899727161	1
2	890	50.214429632493	1
2	901	51.338281196403	1
2	912	53.455762078659	1
2	921	53.569868049746	1
2	933	55.03040550159	1
2	944	55.670444936559	1
2	953	55.944821219135	1
2	966	56.613514777696	1
2	975	56.80137299162	1
2	987	58.227489134818	1
2	998	58.436983088731	1
2	1003	58.536983088731	1
2	1017	60.843215695115	1
2	1030	61.416105547291	1
2	1033	61.516105547291	1
2	1047	61.999136968451	1
2	1056	62.10169387754	1
2	1066	62.442328076934	1
2	1079	62.622797446015	1
2	1082	62.722797446015	1
2	1095	62.936878181703	1
2	1100	63.036878181703	1
2	1115	63.574502222671	1
2	1124	63.67667307123	1
2	1132	63.827329844717	1
2	1146	64.697728117393	1
2	1157	64.805175344898	1
2	1162	64.905175344898	1
2	1172	65.005175344898	1
2	1176	65.105175344898	1
2	1182	65.205175344898	1
2	1191	65.339850044489	1
2	1205	65.895035751016	1
2	1217	66.259473988366	1
2	1229	67.382099143433	1
2	1240	68.040149804542	1
2	1249	68.280685325673	1
2	1264	69.169065612403	1
2	1269	69.269065612403	1
2	1274	69.369065612403	1
2	1289	70.190004345302	1
2	1300	71.511182769121	1
2	1315	71.867357631141	1
2	1318	71.967357631141	1
2	1323	72.067357631141	1
2	1334	72.179326197067	1
2	1348	73.464013121976	1
2	1357	73.5864900442	1
2	1369	74.483471985003	1
2	1380	74.714348156529	1
2	1385	74.814348156529	1
2	1397	75.039817956908	1
2	1405	75.174836539827	1
2	1417	75.554024857927	1
2	1430	76.273272934867	1
2	1439	76.567537601357	1
2	1450	76.779454064927	1
2	1461	76.912072370335	1
2	1473	77.349870564798	1
2	1484	77.484159971539	1
2	1489	77.584159971539	1
2	1495	77.684159971539	1
2	1510	78.58491249314	1
2	1521	79.30318634108	1
2	1532	79.704522053614	1
2	1541	80.000265322972	1
2	1554	80.403391735	1
2	1565	80.885645637734	1
2	1576	81.881165338252	1
2	1589	82.256201575983	1
2	1592	82.356201575983	1
2	1604	82.569910270231	1
2	1614	82.796002170789	1
2	1626	83.525930341371	1
2	1637	83.996104787994	1
2	1650	84.442934921457	1
2	1653	84.542934921457	1
2	1665	84.72089520262	1
2	1670	84.82089520262	1
2	1687	86.751645009717	1
2	1692	86.851645009717	1
2	1697	86.951645009717	1
2	1712	87.369990346758	1
2	1717	87.469990346758	1
2	1731	89.264400769262	1
2	1742	89.789285876906	1
2	1753	90.482648617841	1
2	1764	90.855072290349	1
2	1775	91.317020198489	1
2	1784	91.428286925045	1
2	1798	92.281233779264	1
2	1801	92.381233779264	1
2	1815	94.994698351672	1
2	1828	95.421281897241	1
2	1831	95.521281897241	1
2	1841	95.631348798924	1
2	1853	95.813125312009	1
2	1856	95.913125312009	1
2	1873	96.535093149427	1
2	1886	96.906081764087	1
2	1889	97.006081764087	1
2	1903	97.544931951846	1
2	1918	98.465567438744	1
2	1921	98.565567438744	1
2	1926	98.665567438744	1
2	1937	98.884888174041	1
2	1953	99.880898644406	1
2	1956	99.980898644406	1
2	1966	100.169596181495	1
2	1980	101.031415834032	1
2	1991	101.524970884483	1
2	2004	102.305402425154	1
2	2009	102.405402425154	1
2	2014	102.505402425154	1
2	2031	103.39423643136	1
2	2034	103.49423643136	1
2	2048	104.994347903679	1
2	2061	106.364529435212	1
2	2064	106.464529435212	1
2	2076	106.86056633657	1
2	2091	109.02732152847	1
2	2094	109.12732152847	1
2	2110	110.37422990171	1
2	2115	110.47422990171	1
2	2120	110.57422990171	1
2	2135	111.492777571025	1
2	2146	112.215868965231	1
2	2157	112.650271459994	1
2	2168	112.98441940099	1
2	2177	113.150783286168	1
2	2189	113.936578681595	1
2	2200	114.408264393295	1
2	2211	115.120722311182	1
2	2220	115.327886859308	1
2	2233	116.237280430469	1
2	2244	117.099904405496	1
2	2253	117.348805272535	1
2	2266	117.722488043632	1
2	2277	119.125090806319	1
2	2288	120.971406100842	1
2	2299	121.404042291746	1
2	2312	121.808082891085	1
2	2315	121.908082891085	1
2	2329	123.114789401659	1
2	2340	124.292881499912	1
2	2349	124.450963338053	1
2	2361	124.912698188508	1
2	2374	125.318088082523	1
2	2377	125.418088082523	1
2	2389	125.713539433631	1
2	2401	126.178252392566	1
2	2412	127.100618319952	1
2	2427	128.125799058335	1
2	2430	128.225799058335	1
2	2435	128.325799058335	1
2	2450	129.206309797693	1
2	2461	130.033246209135	1
2	2472	130.93021015497	1
2	2483	131.708706015788	1
2	2492	131.995485345775	1
2	2507	132.914623227174	1
2	2510	133.014623227174	1
2	2524	133.660429425693	1
2	2537	134.462223837926	1
2	2540	134.562223837926	1
2	2554	135.106008865383	1
2	2565	135.969233328086	1
2	2576	137.35106905486	1
2	2587	137.822302380607	1
2	2598	138.27407376327	1
2	2609	138.637605630598	1
2	2622	140.525907092063	1
2	2625	140.625907092063	1
2	2635	140.797087651136	1
2	2649	142.468713522753	1
2	2658	142.696322764471	1
2	2669	142.887799454447	1
2	2681	143.609732004905	1
2	2690	143.71150885063	1
2	2702	144.376211146047	1
2	2711	144.543364878888	1
2	2723	145.254104467017	1
2	2732	145.450384009569	1
2	2746	146.684460908463	1
2	2749	146.784460908463	1
2	2763	147.418402357325	1
2	2772	147.601549023868	1
2	2784	148.231950451474	1
2	2795	150.020672567782	1
2	2806	151.039412247248	1
2	2817	153.158181670576	1
2	2828	153.727966684734	1
2	2837	153.899295534496	1
2	2849	154.097591408393	1
2	2852	154.197591408393	1
2	2867	155.086562938942	1
2	2878	157.11646785305	1
2	2887	157.270834228481	1
2	2899	157.908471958574	1
2	2910	158.577632318205	1
2	2921	159.115208880771	1
2	2934	159.537405324753	1
2	2937	159.637405324753	1
2	2949	159.889104010897	1
2	2959	160.176696926064	1
2	2970	160.284918727197	1
2	2980	160.600951163042	1
2	2993	161.794495602735	1
2	3004	162.021032302245	1
2	3011	162.121032302245	1
2	3016	162.221032302245	1
2	3031	163.088379650024	1
2	3042	163.424305285617	1
2	3053	164.056991378434	1
2	3064	164.906287449574	1
2	3075	165.247241317603	1
2	3086	165.995147619336	1
2	3097	166.595082604442	1
2	3108	167.089762198251	1
2	3117	167.272479943489	1
2	3129	167.6621087652	1
2	3140	168.749692501207	1
2	3151	169.618862504075	1
2	3160	169.726991652642	1
2	3170	170.093432586647	1
2	3185	170.570179292641	1
2	3188	170.670179292641	1
2	3200	170.914251825101	1
2	3210	171.230822691797	1
2	3225	171.845983233752	1
2	3228	171.945983233752	1
2	3240	172.213951625273	1
2	3252	172.613431148328	1
2	3263	174.28942432754	1
2	3274	175.669439776568	1
2	3285	176.724932018682	1
2	3296	177.167946583992	1
2	3307	178.426218145579	1
2	3318	178.667652920707	1
2	3323	178.767652920707	1
2	3339	180.4031988272	1
2	3342	180.5031988272	1
2	3356	180.920932079752	1
2	3367	181.27732058555	1
2	3376	181.402604060949	1
2	3388	182.132441061034	1
2	3397	182.264031808193	1
2	3407	182.506327282092	1
2	3419	182.900269683702	1
2	3432	183.35740440059	1
2	3437	183.45740440059	1
2	3442	183.55740440059	1
2	3457	184.196710776139	1
2	3468	184.759293592197	1
2	3479	186.464118325499	1
2	3490	187.092884559552	1
2	3501	187.81532423188	1
2	3514	188.092293815432	1
2	3519	188.192293815432	1
2	3524	188.292293815432	1
2	3539	189.620673729276	1
2	3548	189.916924866109	1
2	3559	190.115336942801	1
2	3571	190.852985324335	1
2	3582	191.774881211107	1
2	3593	192.25767659987	1
2	3602	192.473314863422	1
2	3615	193.655424912904	1
2	3626	193.979094264898	1
2	3637	194.454584594368	1
2	3648	195.793395685176	1
2	3657	195.901184103469	1
2	3669	196.88062231742	1
2	3680	197.373356142659	1
2	3693	198.215435449916	1
2	3696	198.315435449916	1
2	3706	198.47945936703	1
2	3720	199.227617772119	1
2	3731	199.821179909516	1
2	3742	199.944622721704	1
3	8	0.205935589651	1
3	19	0.455240613964	1
3	30	0.838537493436	1
3	41	1.21881267591	1
3	58	1.595413794696	1
3	65	1.695413794696	1
3	75	1.795413794696	1
3	79	1.895413794696	2
3	87	1.995413794696	2
3	91	2.095413794696	3
3	95	2.195413794696	3
3	111	3.268540748444	1
3	126	3.566727859708	1
3	132	3.666727859708	1
3	145	3.804935460569	1
3	149	3.904935460569	2
3	153	4.004935460569	2
3	163	4.212489792856	2
3	173	4.445624683726	2
3	188	4.821006807974	1
3	193	4.92135606059	2
3	203	5.130010561191	2
3	217	6.289590637913	1
3	228	6.547170446686	1
3	239	8.205531082799	1
3	254	8.935235824424	1
3	257	9.035235824424	1
3	269	10.848435780047	1
3	280	11.50898680368	1
3	291	12.174018020816	1
3	306	12.641742940604	1
3	309	12.741742940604	1
3	325	13.97734627502	1
3	328	14.07734627502	1
3	340	14.662371289089	1
3	351	16.318975227851	1
3	362	16.755518081127	1
3	373	17.198444780326	1
3	384	17.865098189836	1
3	395	19.443654772314	1
3	406	19.712350559935	1
3	417	20.258522320797	1
3	428	20.910604951503	1
3	439	21.368265323333	1
3	450	22.326491469566	1
3	461	22.887740413583	1
3	472	23.23244674988	1
3	483	24.028983168161	1
3	494	25.581187306096	1
3	505	25.839873554811	1
3	516	26.735446145612	1
3	527	27.724099311071	1
3	544	29.976844751569	1
3	551	30.076844751569	1
3	557	30.176844751569	1
3	559	30.276844751569	2
3	575	30.590142879636	1
3	577	30.690142879636	2
3	591	32.22911107331	1
3	602	32.60050810059	1
3	616	33.177188618984	1