version 3
run BaseVersion-13-20240511-20:45:07-11874
attr configname BaseVersion
attr datetime 20240511-20:45:07
attr datetimef 20240511-204507
attr experiment BaseVersion
attr inifile omnetpp.ini
attr iterationvars $genInterval=0.75
attr iterationvarsd genInterval=0.75
attr iterationvarsf genInterval=0.75-
attr measurement $genInterval=0.75
attr network Network
attr processid 11874
attr repetition 0
attr replication #0
attr resultdir results
attr runnumber 13
attr seedset 13
itervar genInterval 0.75
config network Network
config sim-time-limit 200s
config Network.nodeTx.gen.generationInterval exponential(0.75)
config Network.nodeTx.gen.packetByteSize 12500
config Network.nodeTx.queue.bufferSize 200
config Network.nodeRx.queue.bufferSize 200
config Network.queue.bufferSize 200

vector 0 Network.nodeTx.gen packetGen ETV
vector 1 Network.nodeTx.queue bufferSize ETV
vector 2 Network.queue bufferSize ETV
vector 3 Network.nodeRx.queue bufferSize ETV
vector 4 Network.nodeRx.sink Delay ETV
vector 5 Network.nodeRx.sink packetUsed ETV
0	1	1.127803725266	1
0	12	1.828914652722	1
0	21	2.032319771982	1
0	34	3.503878449948	1
0	45	4.808019759619	1
0	56	6.484093232792	1
0	67	9.01462728034	1
0	73	9.162691625837	1
0	88	11.860631237514	1
0	99	12.926556526211	1
0	110	13.37965259994	1
0	121	14.424374554323	1
0	132	15.128741798555	1
0	143	15.829856574624	1
0	154	16.950354819353	1
0	165	18.135341882729	1
0	176	18.904949012025	1
0	185	19.273268932926	1
0	198	20.233418740183	1
0	207	20.545449958846	1
0	210	20.572198727019	1
0	228	21.38553588026	1
0	237	21.65138264198	1
0	250	23.421128671674	1
0	253	23.466349316678	1
0	269	24.421155330163	1
0	280	25.880158021005	1
0	291	26.358573345658	1
0	300	26.708505310571	1
0	313	27.223887095046	1
0	324	28.07810653225	1
0	335	28.521409930962	1
0	344	28.743477870412	1
0	357	29.310663608352	1
0	366	29.630965067668	1
0	379	33.379252657685	1
0	382	33.386345668785	1
0	398	34.101166938796	1
0	407	34.433932206428	1
0	415	34.583051023471	1
0	430	36.8163845594	1
0	441	37.778832276382	1
0	447	37.96316082597	1
0	462	40.062133088704	1
0	471	40.350708959847	1
0	484	40.930482090741	1
0	495	42.804180141861	1
0	506	43.280533959993	1
0	509	43.304851718703	1
0	525	44.039339581479	1
0	528	44.089813957637	1
0	544	44.967664625544	1
0	555	45.713007290856	1
0	564	45.96857266674	1
0	577	47.521068100919	1
0	580	47.561780814004	1
0	582	47.568346264188	1
0	604	48.73055721982	1
0	615	49.760079351647	1
0	626	50.319743297255	1
0	637	51.576591567909	1
0	643	51.740984734775	1
0	649	51.800037831014	1
0	666	52.47831674707	1
0	677	53.279645363109	1
0	688	53.867086303586	1
0	699	54.400970284866	1
0	710	54.85138428616	1
0	721	55.341660972118	1
0	732	55.879094242937	1
0	743	58.214544476815	1
0	754	59.041940056641	1
0	757	59.041949085227	1
0	759	59.13642430302	1
0	773	59.349170632293	1
0	776	59.437858364452	1
0	799	60.372060632191	1
0	810	61.730948983698	1
0	819	62.025266684614	1
0	830	62.26331154971	1
0	841	62.506567308841	1
0	854	63.228540619086	1
0	865	64.120219421751	1
0	876	64.788294774343	1
0	887	66.66913528247	1
0	898	67.539287553397	1
0	907	67.749545057068	1
0	918	68.017285806437	1
0	931	68.476771522596	1
0	942	69.21021737638	1
0	951	69.428977604248	1
0	954	69.49882698549	1
0	970	69.856547763001	1
0	983	70.435072130979	1
0	994	71.13084914689	1
0	997	71.182644388855	1
0	1013	72.292698581672	1
0	1022	72.538850116588	1
0	1025	72.591600577453	1
0	1030	72.680007464395	1
0	1051	73.548982419467	1
0	1062	74.136649621452	1
0	1073	74.732636149498	1
0	1084	75.469311618716	1
0	1090	75.580674486963	1
0	1105	76.095901354592	1
0	1108	76.173883476942	1
0	1124	77.113677296377	1
0	1133	77.325011056788	1
0	1139	77.498381502622	1
0	1150	77.621848824701	1
0	1166	81.321118967575	1
0	1177	83.273830703454	1
0	1183	83.420586115023	1
0	1198	84.275407982921	1
0	1209	88.390633076103	1
0	1218	88.594153988002	1
0	1231	89.166220829616	1
0	1242	89.797256571362	1
0	1245	89.868688596647	1
0	1261	90.478705052773	1
0	1270	90.720415030244	1
0	1273	90.777053736094	1
0	1285	90.931357577869	1
0	1301	92.304428567458	1
0	1312	92.753228314674	1
0	1321	93.143026546992	1
0	1334	93.556834919058	1
0	1340	93.674212119853	1
0	1343	93.676398296694	1
0	1351	93.835291457933	1
0	1369	94.360959650314	1
0	1382	94.866910031572	1
0	1393	95.332522229833	1
0	1404	96.266181808471	1
0	1415	97.445373683857	1
0	1426	100.592081888194	1
0	1429	100.601480596236	1
0	1445	102.159781826423	1
0	1456	103.193364974732	1
0	1467	103.711789256329	1
0	1478	107.201943454393	1
0	1481	107.286635229731	1
0	1491	107.444388331192	1
0	1507	109.277610501255	1
0	1513	109.38607851882	1
0	1526	109.726576979465	1
0	1532	109.876416494283	1
0	1543	110.069123916777	1
0	1548	110.091802085175	1
0	1567	111.636130563141	1
0	1576	112.017766460852	1
0	1584	112.127714481829	1
0	1593	112.264710448145	1
0	1605	112.46697435745	1
0	1608	112.497581229158	1
0	1625	113.176222096033	1
0	1638	115.671713298987	1
0	1649	116.294164963156	1
0	1658	116.62698111179	1
0	1671	119.021425637282	1
0	1674	119.042021165616	1
0	1688	119.494829250351	1
0	1701	120.086258003115	1
0	1707	120.18980687629	1
0	1722	121.315871223575	1
0	1733	122.387984579276	1
0	1744	123.013944152809	1
0	1750	123.182835328556	1
0	1765	123.630120102568	1
0	1771	123.775062821714	1
0	1786	126.797493128935	1
0	1797	127.228507095919	1
0	1808	127.788207848125	1
0	1817	128.100140856714	1
0	1830	129.726767473064	1
0	1841	132.290977864017	1
0	1852	133.040603688743	1
0	1858	133.156364535205	1
0	1864	133.244985036273	1
0	1881	134.641099555816	1
0	1892	135.070958689504	1
0	1903	135.901107195894	1
0	1909	136.085009647461	1
0	1915	136.171824490084	1
0	1930	136.582552515399	1
0	1933	136.65184751358	1
0	1951	137.398928980993	1
0	1962	139.945236993444	1
0	1971	140.301943736764	1
0	1979	140.46397426132	1
0	1982	140.480201041145	1
0	1987	140.544287806733	1
0	2010	143.431987848708	1
0	2019	143.66738900853	1
0	2032	144.732853479158	1
0	2043	145.520499814136	1
0	2046	145.544261675028	1
0	2062	146.137790330177	1
0	2073	146.81063252022	1
0	2084	147.705468604432	1
0	2095	148.361718837953	1
0	2106	150.836337466483	1
0	2117	152.16731316057	1
0	2126	152.411321551111	1
0	2139	153.413695008347	1
0	2145	153.613259187229	1
0	2160	155.418492155978	1
0	2171	156.819998725268	1
0	2182	157.973824654668	1
0	2188	158.164232102143	1
0	2201	158.543019937172	1
0	2214	159.418765792057	1
0	2223	159.720978525281	1
0	2231	159.845957581517	1
0	2244	160.274715107668	1
0	2252	160.445453635074	1
0	2263	160.671116895434	1
0	2268	160.723611031106	1
0	2285	162.570551786362	1
0	2296	163.608731232074	1
0	2302	163.785316319377	1
0	2311	163.934227148316	1
0	2325	164.215377774833	1
0	2328	164.314892911973	1
0	2340	164.491125763614	1
0	2350	164.682108467077	1
0	2366	165.267629503319	1
0	2375	165.513444798937	1
0	2386	165.846535853404	1
0	2389	165.872341040418	1
0	2407	167.582404560272	1
0	2416	167.802578252006	1
0	2429	168.530846493455	1
0	2440	169.359745032103	1
0	2443	169.404534242478	1
0	2459	170.474618680316	1
0	2470	170.943405373376	1
0	2476	171.135556896059	1
0	2485	171.282673997059	1
0	2501	171.992445768233	1
0	2512	173.053488322359	1
0	2523	174.878487836175	1
0	2534	178.44735854432	1
0	2545	179.03238576486	1
0	2556	182.374688688282	1
0	2565	182.725926589786	1
0	2576	183.01481344606	1
0	2579	183.024779839408	1
0	2597	185.693156101193	1
0	2608	187.019119576881	1
0	2619	188.055397774818	1
0	2630	189.327304750604	1
0	2633	189.34393181394	1
0	2635	189.406239891117	1
0	2640	189.469699722128	1
0	2647	189.610962258163	1
0	2667	190.004088878688	1
0	2683	191.369898372835	1
0	2694	192.699313508821	1
0	2705	193.322174039912	1
0	2716	194.779173861353	1
0	2725	195.102009805726	1
0	2728	195.105272758948	1
0	2735	195.222765718079	1
0	2746	195.416580681595	1
0	2749	195.494367979146	1
0	2768	196.067436163971	1
0	2782	196.683480880538	1
0	2789	196.883608469143	1
0	2804	197.812184657935	1
0	2815	198.323932381	1
1	2	1.127803725266	1
1	13	1.828914652722	1
1	22	2.032319771982	1
1	35	3.503878449948	1
1	46	4.808019759619	1
1	57	6.484093232792	1
1	68	9.01462728034	1
1	74	9.162691625837	1
1	89	11.860631237514	1
1	100	12.926556526211	1
1	111	13.37965259994	1
1	122	14.424374554323	1
1	133	15.128741798555	1
1	144	15.829856574624	1
1	155	16.950354819353	1
1	166	18.135341882729	1
1	177	18.904949012025	1
1	186	19.273268932926	1
1	199	20.233418740183	1
1	208	20.545449958846	1
1	211	20.572198727019	1
1	229	21.38553588026	1
1	238	21.65138264198	1
1	251	23.421128671674	1
1	254	23.466349316678	1
1	270	24.421155330163	1
1	281	25.880158021005	1
1	292	26.358573345658	1
1	301	26.708505310571	1
1	314	27.223887095046	1
1	325	28.07810653225	1
1	336	28.521409930962	1
1	345	28.743477870412	1
1	358	29.310663608352	1
1	367	29.630965067668	1
1	380	33.379252657685	1
1	383	33.386345668785	1
1	399	34.101166938796	1
1	408	34.433932206428	1
1	416	34.583051023471	1
1	431	36.8163845594	1
1	442	37.778832276382	1
1	448	37.96316082597	1
1	463	40.062133088704	1
1	472	40.350708959847	1
1	485	40.930482090741	1
1	496	42.804180141861	1
1	507	43.280533959993	1
1	510	43.304851718703	1
1	526	44.039339581479	1
1	529	44.089813957637	1
1	545	44.967664625544	1
1	556	45.713007290856	1
1	565	45.96857266674	1
1	578	47.521068100919	1
1	581	47.561780814004	1
1	583	47.568346264188	2
1	605	48.73055721982	1
1	616	49.760079351647	1
1	627	50.319743297255	1
1	638	51.576591567909	1
1	644	51.740984734775	1
1	650	51.800037831014	1
1	667	52.47831674707	1
1	678	53.279645363109	1
1	689	53.867086303586	1
1	700	54.400970284866	1
1	711	54.85138428616	1
1	722	55.341660972118	1
1	733	55.879094242937	1
1	744	58.214544476815	1
1	755	59.041940056641	1
1	758	59.041949085227	1
1	760	59.13642430302	2
1	774	59.349170632293	1
1	777	59.437858364452	1
1	800	60.372060632191	1
1	811	61.730948983698	1
1	820	62.025266684614	1
1	831	62.26331154971	1
1	842	62.506567308841	1
1	855	63.228540619086	1
1	866	64.120219421751	1
1	877	64.788294774343	1
1	888	66.66913528247	1
1	899	67.539287553397	1
1	908	67.749545057068	1
1	919	68.017285806437	1
1	932	68.476771522596	1
1	943	69.21021737638	1
1	952	69.428977604248	1
1	955	69.49882698549	1
1	971	69.856547763001	1
1	984	70.435072130979	1
1	995	71.13084914689	1
1	998	71.182644388855	1
1	1014	72.292698581672	1
1	1023	72.538850116588	1
1	1026	72.591600577453	1
1	1031	72.680007464395	1
1	1052	73.548982419467	1
1	1063	74.136649621452	1
1	1074	74.732636149498	1
1	1085	75.469311618716	1
1	1091	75.580674486963	1
1	1106	76.095901354592	1
1	1109	76.173883476942	1
1	1125	77.113677296377	1
1	1134	77.325011056788	1
1	1140	77.498381502622	1
1	1151	77.621848824701	1
1	1167	81.321118967575	1
1	1178	83.273830703454	1
1	1184	83.420586115023	1
1	1199	84.275407982921	1
1	1210	88.390633076103	1
1	1219	88.594153988002	1
1	1232	89.166220829616	1
1	1243	89.797256571362	1
1	1246	89.868688596647	1
1	1262	90.478705052773	1
1	1271	90.720415030244	1
1	1274	90.777053736094	1
1	1286	90.931357577869	1
1	1302	92.304428567458	1
1	1313	92.753228314674	1
1	1322	93.143026546992	1
1	1335	93.556834919058	1
1	1341	93.674212119853	1
1	1344	93.676398296694	1
1	1352	93.835291457933	1
1	1370	94.360959650314	1
1	1383	94.866910031572	1
1	1394	95.332522229833	1
1	1405	96.266181808471	1
1	1416	97.445373683857	1
1	1427	100.592081888194	1
1	1430	100.601480596236	1
1	1446	102.159781826423	1
1	1457	103.193364974732	1
1	1468	103.711789256329	1
1	1479	107.201943454393	1
1	1482	107.286635229731	1
1	1492	107.444388331192	1
1	1508	109.277610501255	1
1	1514	109.38607851882	1
1	1527	109.726576979465	1
1	1533	109.876416494283	1
1	1544	110.069123916777	1
1	1549	110.091802085175	1
1	1568	111.636130563141	1
1	1577	112.017766460852	1
1	1585	112.127714481829	1
1	1594	112.264710448145	1
1	1606	112.46697435745	1
1	1609	112.497581229158	1
1	1626	113.176222096033	1
1	1639	115.671713298987	1
1	1650	116.294164963156	1
1	1659	116.62698111179	1
1	1672	119.021425637282	1
1	1675	119.042021165616	1
1	1689	119.494829250351	1
1	1702	120.086258003115	1
1	1708	120.18980687629	1
1	1723	121.315871223575	1
1	1734	122.387984579276	1
1	1745	123.013944152809	1
1	1751	123.182835328556	1
1	1766	123.630120102568	1
1	1772	123.775062821714	1
1	1787	126.797493128935	1
1	1798	127.228507095919	1
1	1809	127.788207848125	1
1	1818	128.100140856714	1
1	1831	129.726767473064	1
1	1842	132.290977864017	1
1	1853	133.040603688743	1
1	1859	133.156364535205	1
1	1865	133.244985036273	1
1	1882	134.641099555816	1
1	1893	135.070958689504	1
1	1904	135.901107195894	1
1	1910	136.085009647461	1
1	1916	136.171824490084	1
1	1931	136.582552515399	1
1	1934	136.65184751358	1
1	1952	137.398928980993	1
1	1963	139.945236993444	1
1	1972	140.301943736764	1
1	1980	140.46397426132	1
1	1983	140.480201041145	1
1	1988	140.544287806733	2
1	2011	143.431987848708	1
1	2020	143.66738900853	1
1	2033	144.732853479158	1
1	2044	145.520499814136	1
1	2047	145.544261675028	1
1	2063	146.137790330177	1
1	2074	146.81063252022	1
1	2085	147.705468604432	1
1	2096	148.361718837953	1
1	2107	150.836337466483	1
1	2118	152.16731316057	1
1	2127	152.411321551111	1
1	2140	153.413695008347	1
1	2146	153.613259187229	1
1	2161	155.418492155978	1
1	2172	156.819998725268	1
1	2183	157.973824654668	1
1	2189	158.164232102143	1
1	2202	158.543019937172	1
1	2215	159.418765792057	1
1	2224	159.720978525281	1
1	2232	159.845957581517	1
1	2245	160.274715107668	1
1	2253	160.445453635074	1
1	2264	160.671116895434	1
1	2269	160.723611031106	1
1	2286	162.570551786362	1
1	2297	163.608731232074	1
1	2303	163.785316319377	1
1	2312	163.934227148316	1
1	2326	164.215377774833	1
1	2329	164.314892911973	1
1	2341	164.491125763614	1
1	2351	164.682108467077	1
1	2367	165.267629503319	1
1	2376	165.513444798937	1
1	2387	165.846535853404	1
1	2390	165.872341040418	1
1	2408	167.582404560272	1
1	2417	167.802578252006	1
1	2430	168.530846493455	1
1	2441	169.359745032103	1
1	2444	169.404534242478	1
1	2460	170.474618680316	1
1	2471	170.943405373376	1
1	2477	171.135556896059	1
1	2486	171.282673997059	1
1	2502	171.992445768233	1
1	2513	173.053488322359	1
1	2524	174.878487836175	1
1	2535	178.44735854432	1
1	2546	179.03238576486	1
1	2557	182.374688688282	1
1	2566	182.725926589786	1
1	2577	183.01481344606	1
1	2580	183.024779839408	1
1	2598	185.693156101193	1
1	2609	187.019119576881	1
1	2620	188.055397774818	1
1	2631	189.327304750604	1
1	2634	189.34393181394	1
1	2636	189.406239891117	2
1	2641	189.469699722128	2
1	2648	189.610962258163	2
1	2668	190.004088878688	1
1	2684	191.369898372835	1
1	2695	192.699313508821	1
1	2706	193.322174039912	1
1	2717	194.779173861353	1
1	2726	195.102009805726	1
1	2729	195.105272758948	1
1	2736	195.222765718079	1
1	2747	195.416580681595	1
1	2750	195.494367979146	1
1	2769	196.067436163971	1
1	2783	196.683480880538	1
1	2790	196.883608469143	1
1	2805	197.812184657935	1
1	2816	198.323932381	1
2	5	1.227903725266	1
2	16	1.929014652722	1
2	25	2.132419771982	1
2	38	3.603978449948	1
2	49	4.908119759619	1
2	60	6.584193232792	1
2	71	9.11472728034	1
2	80	9.262791625837	1
2	92	11.960731237514	1
2	103	13.026656526211	1
2	114	13.47975259994	1
2	125	14.524474554323	1
2	136	15.228841798555	1
2	147	15.929956574624	1
2	158	17.050454819353	1
2	169	18.235441882729	1
2	180	19.005049012025	1
2	191	19.373368932926	1
2	202	20.333518740183	1
2	215	20.645549958846	1
2	218	20.745549958846	1
2	232	21.48563588026	1
2	241	21.75148264198	1
2	256	23.521228671674	1
2	259	23.621228671674	1
2	273	24.521255330163	1
2	284	25.980258021005	1
2	295	26.458673345658	1
2	306	26.808605310571	1
2	317	27.323987095046	1
2	328	28.17820653225	1
2	339	28.621509930962	1
2	348	28.843577870412	1
2	361	29.410763608352	1
2	372	29.731065067668	1
2	385	33.479352657685	1
2	388	33.579352657685	1
2	402	34.201266938796	1
2	413	34.534032206428	1
2	422	34.683151023471	1
2	434	36.9164845594	1
2	445	37.878932276382	1
2	454	38.06326082597	1
2	466	40.162233088704	1
2	475	40.450808959847	1
2	488	41.030582090741	1
2	499	42.904280141861	1
2	512	43.380633959993	1
2	515	43.480633959993	1
2	531	44.139439581479	1
2	534	44.239439581479	1
2	548	45.067764625544	1
2	559	45.813107290856	1
2	568	46.06867266674	1
2	585	47.621168100919	1
2	588	47.721168100919	1
2	593	47.821168100919	1
2	608	48.83065721982	1
2	619	49.860179351647	1
2	630	50.419843297255	1
2	641	51.676691567909	1
2	652	51.841084734775	1
2	655	51.941084734775	1
2	670	52.57841674707	1
2	681	53.379745363109	1
2	692	53.967186303586	1
2	703	54.501070284866	1
2	714	54.95148428616	1
2	725	55.441760972118	1
2	736	55.979194242937	1
2	747	58.314644476815	1
2	762	59.142040056641	1
2	765	59.242040056641	1
2	770	59.342040056641	1
2	783	59.449270632293	1
2	786	59.549270632293	1
2	803	60.472160632191	1
2	814	61.831048983698	1
2	823	62.125366684614	1
2	834	62.36341154971	1
2	845	62.606667308841	1
2	858	63.328640619086	1
2	869	64.220319421751	1
2	880	64.888394774343	1
2	891	66.76923528247	1
2	902	67.639387553397	1
2	911	67.849645057068	1
2	922	68.117385806437	1
2	935	68.576871522596	1
2	946	69.31031737638	1
2	957	69.529077604248	1
2	962	69.629077604248	1
2	974	69.956647763001	1
2	987	70.535172130979	1
2	1000	71.23094914689	1
2	1003	71.33094914689	1
2	1017	72.392798581672	1
2	1028	72.638950116588	1
2	1035	72.738950116588	1
2	1040	72.838950116588	1
2	1055	73.649082419467	1
2	1066	74.236749621452	1
2	1077	74.832736149498	1
2	1088	75.569411618716	1
2	1097	75.680774486963	1
2	1111	76.196001354592	1
2	1114	76.296001354592	1
2	1128	77.213777296377	1
2	1137	77.425111056788	1
2	1148	77.598481502622	1
2	1156	77.721948824701	1
2	1170	81.421218967575	1
2	1181	83.373930703454	1
2	1190	83.520686115023	1
2	1202	84.375507982921	1
2	1213	88.490733076103	1
2	1222	88.694253988002	1
2	1235	89.266320829616	1
2	1248	89.897356571362	1
2	1251	89.997356571362	1
2	1265	90.578805052773	1
2	1276	90.820515030244	1
2	1281	90.920515030244	1
2	1291	91.031457577869	1
2	1305	92.404528567458	1
2	1316	92.853328314674	1
2	1327	93.243126546992	1
2	1338	93.656934919058	1
2	1349	93.774312119853	1
2	1354	93.874312119853	1
2	1360	93.974312119853	1
2	1373	94.461059650314	1
2	1386	94.967010031572	1
2	1397	95.432622229833	1
2	1408	96.366281808471	1
2	1419	97.545473683857	1
2	1432	100.692181888194	1
2	1435	100.792181888194	1
2	1449	102.259881826423	1
2	1460	103.293464974732	1
2	1471	103.811889256329	1
2	1484	107.302043454393	1
2	1487	107.402043454393	1
2	1497	107.544488331192	1
2	1511	109.377710501255	1
2	1520	109.48617851882	1
2	1530	109.826676979465	1
2	1541	109.976516494283	1
2	1553	110.169223916777	1
2	1556	110.269223916777	1
2	1571	111.736230563141	1
2	1582	112.117866460852	1
2	1591	112.227814481829	1
2	1599	112.364810448145	1
2	1611	112.56707435745	1
2	1616	112.66707435745	1
2	1631	113.276322096033	1
2	1642	115.771813298987	1
2	1653	116.394264963156	1
2	1664	116.72708111179	1
2	1677	119.121525637282	1
2	1680	119.221525637282	1
2	1692	119.594929250351	1
2	1705	120.186358003115	1
2	1714	120.28990687629	1
2	1726	121.415971223575	1
2	1737	122.488084579276	1
2	1748	123.114044152809	1
2	1757	123.282935328556	1
2	1769	123.730220102568	1
2	1778	123.875162821714	1
2	1790	126.897593128935	1
2	1801	127.328607095919	1
2	1812	127.888307848125	1
2	1823	128.200240856714	1
2	1834	129.826867473064	1
2	1845	132.391077864017	1
2	1856	133.140703688743	1
2	1867	133.256464535205	1
2	1870	133.356464535205	1
2	1885	134.741199555816	1
2	1896	135.171058689504	1
2	1907	136.001207195894	1
2	1918	136.185109647461	1
2	1921	136.285109647461	1
2	1936	136.682652515399	1
2	1941	136.782652515399	1
2	1955	137.499028980993	1
2	1966	140.045336993444	1
2	1977	140.402043736764	1
2	1990	140.56407426132	1
2	1993	140.66407426132	1
2	1999	140.76407426132	1
2	2014	143.532087848708	1
2	2023	143.76748900853	1
2	2036	144.832953479158	1
2	2049	145.620599814136	1
2	2052	145.720599814136	1
2	2066	146.237890330177	1
2	2077	146.91073252022	1
2	2088	147.805568604432	1
2	2099	148.461818837953	1
2	2110	150.936437466483	1
2	2121	152.26741316057	1
2	2130	152.511421551111	1
2	2143	153.513795008347	1
2	2152	153.713359187229	1
2	2164	155.518592155978	1
2	2175	156.920098725268	1
2	2186	158.073924654668	1
2	2195	158.264332102143	1
2	2207	158.643119937172	1
2	2218	159.518865792057	1
2	2229	159.821078525281	1
2	2238	159.946057581517	1
2	2250	160.374815107668	1
2	2259	160.545553635074	1
2	2271	160.771216895434	1
2	2274	160.871216895434	1
2	2289	162.670651786362	1
2	2300	163.708831232074	1
2	2309	163.885416319377	1
2	2319	164.034327148316	1
2	2331	164.315477774833	1
2	2336	164.415477774833	1
2	2346	164.591225763614	1
2	2356	164.782208467077	1
2	2370	165.367729503319	1
2	2379	165.613544798937	1
2	2394	165.946635853404	1
2	2397	166.046635853404	1
2	2411	167.682504560272	1
2	2420	167.902678252006	1
2	2433	168.630946493455	1
2	2446	169.459845032103	1
2	2449	169.559845032103	1
2	2463	170.574718680316	1
2	2474	171.043505373376	1
2	2483	171.235656896059	1
2	2493	171.382773997059	1
2	2505	172.092545768233	1
2	2516	173.153588322359	1
2	2527	174.978587836175	1
2	2538	178.54745854432	1
2	2549	179.13248576486	1
2	2560	182.474788688282	1
2	2571	182.826026589786	1
2	2582	183.11491344606	1
2	2587	183.21491344606	1
2	2601	185.793256101193	1
2	2612	187.119219576881	1
2	2623	188.155497774818	1
2	2638	189.427404750604	1
2	2643	189.527404750604	1
2	2650	189.627404750604	1
2	2654	189.727404750604	1
2	2660	189.827404750604	1
2	2671	190.104188878688	1
2	2687	191.469998372835	1
2	2698	192.799413508821	1
2	2709	193.422274039912	1
2	2720	194.879273861353	1
2	2733	195.202109805726	1
2	2738	195.302109805726	1
2	2743	195.402109805726	1
2	2756	195.516680681595	1
2	2759	195.616680681595	1
2	2774	196.167536163971	1
2	2786	196.783580880538	1
2	2795	196.983708469143	1
2	2808	197.912284657935	1
2	2819	198.424032381	1
3	8	1.328003725266	1
3	19	2.029114652722	1
3	30	2.232519771982	1
3	41	3.704078449948	1
3	52	5.008219759619	1
3	63	6.684293232792	1
3	77	9.21482728034	1
3	83	9.362891625837	1
3	95	12.060831237514	1
3	106	13.126756526211	1
3	117	13.57985259994	1
3	128	14.624574554323	1
3	139	15.328941798555	1
3	150	16.030056574624	1
3	161	17.150554819353	1
3	172	18.335541882729	1
3	183	19.105149012025	1
3	194	19.473468932926	1
3	205	20.433618740183	1
3	220	20.745649958846	1
3	223	20.845649958846	1
3	235	21.58573588026	1
3	246	21.85158264198	1
3	261	23.621328671674	1
3	264	23.721328671674	1
3	276	24.621355330163	1
3	287	26.080358021005	1
3	298	26.558773345658	1
3	309	26.908705310571	1
3	320	27.424087095046	1
3	331	28.27830653225	1
3	342	28.721609930962	1
3	353	28.943677870412	1
3	364	29.510863608352	1
3	375	29.831165067668	1
3	390	33.579452657685	1
3	393	33.679452657685	1
3	405	34.301366938796	1
3	419	34.634132206428	1
3	425	34.783251023471	1
3	437	37.0165845594	1
3	451	37.979032276382	1
3	457	38.16336082597	1
3	469	40.262333088704	1
3	480	40.550908959847	1
3	491	41.130682090741	1
3	502	43.004380141861	1
3	517	43.480733959993	1
3	520	43.580733959993	1
3	536	44.239539581479	1
3	539	44.339539581479	1
3	551	45.167864625544	1
3	562	45.913207290856	1
3	573	46.16877266674	1
3	590	47.721268100919	1
3	595	47.821268100919	1
3	599	47.921268100919	1
3	611	48.93075721982	1
3	622	49.960279351647	1
3	633	50.519943297255	1
3	647	51.776791567909	1
3	657	51.941184734775	1
3	661	52.041184734775	1
3	673	52.67851674707	1
3	684	53.479845363109	1
3	695	54.067286303586	1
3	706	54.601170284866	1
3	717	55.05158428616	1
3	728	55.541860972118	1
3	739	56.079294242937	1
3	750	58.414744476815	1
3	767	59.242140056641	1
3	772	59.342140056641	1
3	781	59.442140056641	1
3	788	59.549370632293	2
3	792	59.649370632293	2
3	806	60.572260632191	1
3	817	61.931148983698	1
3	828	62.225466684614	1
3	839	62.46351154971	1
3	850	62.706767308841	1
3	861	63.428740619086	1
3	872	64.320419421751	1
3	883	64.988494774343	1
3	894	66.86933528247	1
3	905	67.739487553397	1
3	916	67.949745057068	1
3	927	68.217485806437	1
3	938	68.676971522596	1
3	949	69.41041737638	1
3	964	69.629177604248	1
3	967	69.729177604248	1
3	979	70.056747763001	1
3	990	70.635272130979	1
3	1005	71.33104914689	1
3	1008	71.43104914689	1
3	1020	72.492898581672	1
3	1037	72.739050116588	1
3	1042	72.839050116588	1
3	1046	72.939050116588	1
3	1058	73.749182419467	1
3	1069	74.336849621452	1
3	1080	74.932836149498	1
3	1094	75.669511618716	1
3	1100	75.780874486963	1
3	1116	76.296101354592	1
3	1119	76.396101354592	1
3	1131	77.313877296377	1
3	1145	77.525211056788	1
3	1154	77.698581502622	1
3	1161	77.822048824701	1
3	1173	81.521318967575	1
3	1187	83.474030703454	1
3	1193	83.620786115023	1
3	1205	84.475607982921	1
3	1216	88.590833076103	1
3	1227	88.794353988002	1
3	1238	89.366420829616	1
3	1253	89.997456571362	1
3	1256	90.097456571362	1
3	1268	90.678905052773	1
3	1283	90.920615030244	1
3	1289	91.020615030244	1
3	1296	91.131557577869	1
3	1308	92.504628567458	1
3	1319	92.953428314674	1
3	1330	93.343226546992	1
3	1346	93.757034919058	1
3	1356	93.874412119853	1
3	1362	93.974412119853	1
3	1364	94.074412119853	2
3	1378	94.561159650314	1
3	1389	95.067110031572	1
3	1400	95.532722229833	1
3	1411	96.466381808471	1
3	1422	97.645573683857	1
3	1437	100.792281888194	1
3	1440	100.892281888194	1
3	1452	102.359981826423	1
3	1463	103.393564974732	1
3	1474	103.911989256329	1
3	1489	107.402143454393	1
3	1495	107.502143454393	1
3	1502	107.644588331192	1
3	1517	109.477810501255	1
3	1523	109.58627851882	1
3	1538	109.926776979465	1
3	1547	110.076616494283	1
3	1558	110.269323916777	1
3	1562	110.369323916777	1
3	1574	111.836330563141	1
3	1588	112.217966460852	1
3	1597	112.327914481829	1
3	1604	112.464910448145	1
3	1618	112.66717435745	1
3	1620	112.76717435745	2
3	1634	113.376422096033	1
3	1645	115.871913298987	1
3	1656	116.494364963156	1
3	1667	116.82718111179	1
3	1682	119.221625637282	1
3	1685	119.321625637282	1
3	1697	119.695029250351	1
3	1711	120.286458003115	1
3	1717	120.39000687629	1
3	1729	121.516071223575	1
3	1740	122.588184579276	1
3	1754	123.214144152809	1
3	1760	123.383035328556	1
3	1775	123.830320102568	1
3	1781	123.975262821714	1
3	1793	126.997693128935	1
3	1804	127.428707095919	1
3	1815	127.988407848125	1
3	1826	128.300340856714	1
3	1837	129.926967473064	1
3	1848	132.491177864017	1
3	1862	133.240803688743	1
3	1872	133.356564535205	1
3	1876	133.456564535205	1
3	1888	134.841299555816	1
3	1899	135.271158689504	1
3	1913	136.101307195894	1
3	1923	136.285209647461	1
3	1927	136.385209647461	1
3	1943	136.782752515399	1
3	1946	136.882752515399	1
3	1958	137.599128980993	1
3	1969	140.145436993444	1
3	1985	140.502143736764	1
3	1995	140.66417426132	1
3	2001	140.76417426132	1
3	2003	140.86417426132	2
3	2017	143.632187848708	1
3	2028	143.86758900853	1
3	2039	144.933053479158	1
3	2054	145.720699814136	1
3	2057	145.820699814136	1
3	2069	146.337990330177	1
3	2080	147.01083252022	1
3	2091	147.905668604432	1
3	2102	148.561918837953	1
3	2113	151.036537466483	1
3	2124	152.36751316057	1
3	2135	152.611521551111	1
3	2149	153.613895008347	1
3	2155	153.813459187229	1
3	2167	155.618692155978	1
3	2178	157.020198725268	1
3	2192	158.174024654668	1
3	2198	158.364432102143	1
3	2210	158.743219937172	1
3	2221	159.618965792057	1
3	2235	159.921178525281	1
3	2241	160.046157581517	1
3	2256	160.474915107668	1
3	2262	160.645653635074	1
3	2276	160.871316895434	1
3	2280	160.971316895434	1
3	2292	162.770751786362	1
3	2306	163.808931232074	1
3	2315	163.985516319377	1
3	2322	164.134427148316	1
3	2338	164.415577774833	1
3	2344	164.515577774833	1
3	2354	164.691325763614	1
3	2361	164.882308467077	1
3	2373	165.467829503319	1
3	2384	165.713644798937	1
3	2399	166.046735853404	1
3	2402	166.146735853404	1
3	2414	167.782604560272	1
3	2425	168.002778252006	1
3	2436	168.731046493455	1
3	2451	169.559945032103	1
3	2454	169.659945032103	1
3	2466	170.674818680316	1
3	2480	171.143605373376	1
3	2489	171.335756896059	1
3	2496	171.482873997059	1
3	2508	172.192645768233	1
3	2519	173.253688322359	1
3	2530	175.078687836175	1
3	2541	178.64755854432	1
3	2552	179.23258576486	1
3	2563	182.574888688282	1
3	2574	182.926126589786	1
3	2589	183.21501344606	1
3	2592	183.31501344606	1
3	2604	185.893356101193	1
3	2615	187.219319576881	1
3	2626	188.255597774818	1
3	2645	189.527504750604	1
3	2652	189.627504750604	1
3	2658	189.727504750604	1
3	2662	189.827504750604	2
3	2666	189.927504750604	2
3	2676	190.204288878688	2
3	2690	191.570098372835	1
3	2701	192.899513508821	1
3	2712	193.522374039912	1
3	2723	194.979373861353	1
3	2740	195.302209805726	1
3	2745	195.402209805726	1
3	2754	195.502209805726	1
3	2761	195.616780681595	2
3	2765	195.716780681595	2
3	2777	196.267636163971	1
3	2792	196.883680880538	1
3	2800	197.083808469143	1
3	2811	198.012384657935	1
3	2822	198.524132381	1
4	10	1.528003725266	0.4002
4	27	2.229114652722	0.4002
4	32	2.432519771982	0.4002
4	43	3.904078449948	0.4002
4	54	5.208219759619	0.4002
4	65	6.884293232792	0.4002
4	84	9.41482728034	0.4002
4	86	9.61482728034	0.452135654503
4	97	12.260831237514	0.4002
4	108	13.326756526211	0.4002
4	119	13.77985259994	0.4002
4	130	14.824574554323	0.4002
4	141	15.528941798555	0.4002
4	152	16.230056574624	0.4002
4	163	17.350554819353	0.4002
4	174	18.535541882729	0.4002
4	188	19.305149012025	0.4002
4	196	19.673468932926	0.4002
4	212	20.633618740183	0.4002
4	224	20.945649958846	0.4002
4	226	21.145649958846	0.573451231827
4	243	21.78573588026	0.4002
4	248	22.05158264198	0.4002
4	265	23.821328671674	0.4002
4	267	24.021328671674	0.554979354996
4	278	24.821355330163	0.4002
4	289	26.280358021005	0.4002
4	303	26.758773345658	0.4002
4	311	27.108705310571	0.4002
4	322	27.624087095046	0.4002
4	333	28.47830653225	0.4002
4	350	28.921609930962	0.4002
4	355	29.143677870412	0.4002
4	369	29.710863608352	0.4002
4	377	30.031165067668	0.4002
4	394	33.779452657685	0.4002
4	396	33.979452657685	0.5931069889
4	410	34.501366938796	0.4002
4	426	34.834132206428	0.4002
4	428	35.034132206428	0.451081182957
4	439	37.2165845594	0.4002
4	458	38.179032276382	0.4002
4	460	38.379032276382	0.415871450412
4	477	40.462333088704	0.4002
4	482	40.750908959847	0.4002
4	493	41.330682090741	0.4002
4	504	43.204380141861	0.4002
4	521	43.680733959993	0.4002
4	523	43.880733959993	0.57588224129
4	540	44.439539581479	0.4002
4	542	44.639539581479	0.549725623842
4	553	45.367864625544	0.4002
4	570	46.113207290856	0.4002
4	575	46.36877266674	0.4002
4	597	47.921268100919	0.4002
4	600	48.121268100919	0.559487286915
4	602	48.321268100919	0.752921836731
4	613	49.13075721982	0.4002
4	624	50.160279351647	0.4002
4	635	50.719943297255	0.4002