version 3
run BaseVersion-16-20240511-20:45:07-11874
attr configname BaseVersion
attr datetime 20240511-20:45:07
attr datetimef 20240511-204507
attr experiment BaseVersion
attr inifile omnetpp.ini
attr iterationvars $genInterval=0.9
attr iterationvarsd genInterval=0.9
attr iterationvarsf genInterval=0.9-
attr measurement $genInterval=0.9
attr network Network
attr processid 11874
attr repetition 0
attr replication #0
attr resultdir results
attr runnumber 16
attr seedset 16
itervar genInterval 0.9
config network Network
config sim-time-limit 200s
config Network.nodeTx.gen.generationInterval exponential(0.9)
config Network.nodeTx.gen.packetByteSize 12500
config Network.nodeTx.queue.bufferSize 200
config Network.nodeRx.queue.bufferSize 200
config Network.queue.bufferSize 200

vector 0 Network.nodeTx.gen packetGen ETV
vector 1 Network.nodeTx.queue bufferSize ETV
vector 2 Network.queue bufferSize ETV
vector 3 Network.nodeRx.queue bufferSize ETV
vector 4 Network.nodeRx.sink Delay ETV
vector 5 Network.nodeRx.sink packetUsed ETV
0	1	0.22742065585	1
0	10	0.583369909984	1
0	23	1.249893073573	1
0	26	1.301460995494	1
0	42	2.021521925676	1
0	51	2.353676852775	1
0	54	2.395683859033	1
0	61	2.530581969954	1
0	76	2.933265873838	1
0	90	4.030334455501	1
0	99	4.257511652092	1
0	105	4.407923203293	1
0	122	5.458297221029	1
0	133	6.413021310442	1
0	139	6.573946219491	1
0	154	8.381682823876	1
0	157	8.447310886646	1
0	173	10.122522928492	1
0	184	12.669884653197	1
0	195	13.71104066442	1
0	206	14.457484933192	1
0	212	14.626290823024	1
0	218	14.69937239307	1
0	235	15.511363856892	1
0	246	16.665560596754	1
0	257	17.412527610895	1
0	263	17.567788801281	1
0	278	18.736049967824	1
0	287	18.995301461297	1
0	298	19.385854455733	1
0	309	19.698527092343	1
0	322	20.815695080558	1
0	333	21.889159758847	1
0	344	22.292979249002	1
0	355	22.854681799391	1
0	358	22.938317255232	1
0	370	23.156252910206	1
0	382	23.487797987787	1
0	395	24.020672819123	1
0	406	25.12569446354	1
0	412	25.241643668027	1
0	425	25.693970321759	1
0	438	27.941474013528	1
0	444	28.136265836728	1
0	459	28.888431560582	1
0	468	29.177399595693	1
0	481	29.752225620496	1
0	487	29.878592536989	1
0	500	30.218525854242	1
0	513	31.768025335277	1
0	516	31.807784943053	1
0	518	31.862623003032	1
0	540	33.119132951151	1
0	549	33.319418100448	1
0	562	34.024712797159	1
0	573	35.313405115438	1
0	584	36.625186096197	1
0	595	38.554517862336	1
0	606	39.96102617344	1
0	617	40.588259987484	1
0	620	40.655725906195	1
0	636	41.198190047755	1
0	647	42.168366858774	1
0	658	42.658381646995	1
0	661	42.707676744985	1
0	666	42.798976255127	1
0	685	43.838710492645	1
0	696	44.833469199529	1
0	707	45.360707487856	1
0	718	46.945123899699	1
0	729	47.513117989401	1
0	740	48.370057576087	1
0	751	49.343794756311	1
0	762	53.144426633098	1
0	773	54.198394440221	1
0	784	55.386857561872	1
0	793	55.661910657505	1
0	799	55.77460630154	1
0	802	55.784997095119	1
0	820	56.258575708829	1
0	834	57.586363608864	1
0	843	57.839289345549	1
0	856	59.363523345031	1
0	867	60.64464925133	1
0	873	60.780014865044	1
0	888	62.181912818523	1
0	899	62.958402182269	1
0	905	63.11503016547	1
0	918	63.489913989273	1
0	931	64.860131608389	1
0	940	65.097953163735	1
0	946	65.227967281386	1
0	957	65.427271997662	1
0	971	65.73245670884	1
0	982	66.017536195677	1
0	995	67.316189921383	1
0	1006	70.705481837674	1
0	1017	71.477776583988	1
0	1026	71.696132946179	1
0	1029	71.705438016355	1
0	1045	72.102058460801	1
0	1058	73.388050832918	1
0	1061	73.404765033355	1
0	1063	73.434112687036	1
0	1085	74.297368242909	1
0	1096	75.210750827878	1
0	1105	75.446453069609	1
0	1118	76.435931958994	1
0	1129	77.656475905826	1
0	1140	78.103727055746	1
0	1151	78.893631558374	1
0	1162	79.620905997173	1
0	1173	80.11132116014	1
0	1184	80.986327661863	1
0	1195	82.098098769161	1
0	1206	83.227079598989	1
0	1217	86.446539582237	1
0	1228	93.004560873664	1
0	1239	94.499404266628	1
0	1250	97.468617515456	1
0	1261	97.975559623819	1
0	1272	99.281302886072	1
0	1283	102.128582934296	1
0	1294	103.23437284856	1
0	1297	103.278415406089	1
0	1313	104.841414683947	1
0	1324	106.029135431656	1
0	1335	106.543658501823	1
0	1346	107.55704302216	1
0	1357	108.666104091003	1
0	1368	109.339907829276	1
0	1377	109.617727358891	1
0	1390	110.371017065349	1
0	1401	111.184099035692	1
0	1412	112.33928516104	1
0	1423	113.894405710132	1
0	1434	114.927248434761	1
0	1445	116.308020670717	1
0	1456	117.73566520882	1
0	1467	120.970449365121	1
0	1473	121.07821190644	1
0	1488	121.913962833157	1
0	1494	122.113850475945	1
0	1509	126.522364576607	1
0	1520	127.672284093972	1
0	1523	127.742872592464	1
0	1537	128.193463331826	1
0	1545	128.34726788216	1
0	1558	128.720121652523	1
0	1566	128.895701000453	1
0	1575	129.045623828944	1
0	1589	129.441582828872	1
0	1594	129.536981485676	1
0	1610	130.738873939975	1
0	1621	131.209553849946	1
0	1632	131.694643140161	1
0	1643	132.481662860724	1
0	1652	132.748724145698	1
0	1665	133.963588005398	1
0	1676	134.433063323806	1
0	1687	136.27176368617	1
0	1698	137.428104346074	1
0	1709	140.48539634578	1
0	1718	140.808735251423	1
0	1731	141.355941050469	1
0	1742	143.016717387704	1
0	1753	143.477095177555	1
0	1759	143.649518256123	1
0	1772	143.96916340666	1
0	1775	144.041342736767	1
0	1793	145.627463518392	1
0	1799	145.746808711981	1
0	1814	147.912372860306	1
0	1825	148.929524151352	1
0	1836	150.237240724022	1
0	1847	152.221358572341	1
0	1850	152.285042821542	1
0	1855	152.420181940007	1
0	1874	153.258506442853	1
0	1885	154.126731221994	1
0	1896	156.647119018956	1
0	1907	157.100113601574	1
0	1910	157.197083275085	1
0	1926	157.742406063721	1
0	1937	161.158804049664	1
0	1948	163.511773194778	1
0	1957	163.908787115941	1
0	1965	164.097061825228	1
0	1980	165.052733660018	1
0	1991	165.544886659947	1
0	1997	165.662790232959	1
0	2012	166.338113609724	1
0	2023	169.266052385612	1
0	2032	169.475685476471	1
0	2045	170.423568483312	1
0	2056	171.423472037701	1
0	2067	173.907039517647	1
0	2078	174.552794526785	1
0	2089	176.708294417064	1
0	2092	176.762349983081	1
0	2106	177.279390558277	1
0	2119	177.982380304225	1
0	2130	180.418648925456	1
0	2141	181.24348440409	1
0	2152	182.345907659559	1
0	2163	183.085495699206	1
0	2172	183.365212094639	1
0	2185	184.294452471407	1
0	2191	184.472801957439	1
0	2206	187.593012980713	1
0	2217	188.552247449844	1
0	2228	190.401923956091	1
0	2239	191.955439146616	1
0	2250	193.675884159242	1
0	2261	195.822363135357	1
0	2272	196.240036063747	1
0	2283	197.125608549367	1
0	2294	198.138868294471	1
0	2300	198.298761838454	1
0	2309	198.467189738	1
0	2323	198.764903498137	1
0	2329	198.90308850718	1
0	2346	199.701604071237	1
1	2	0.22742065585	1
1	11	0.583369909984	1
1	24	1.249893073573	1
1	27	1.301460995494	1
1	43	2.021521925676	1
1	52	2.353676852775	1
1	55	2.395683859033	1
1	62	2.530581969954	1
1	77	2.933265873838	1
1	91	4.030334455501	1
1	100	4.257511652092	1
1	106	4.407923203293	1
1	123	5.458297221029	1
1	134	6.413021310442	1
1	140	6.573946219491	1
1	155	8.381682823876	1
1	158	8.447310886646	1
1	174	10.122522928492	1
1	185	12.669884653197	1
1	196	13.71104066442	1
1	207	14.457484933192	1
1	213	14.626290823024	1
1	219	14.69937239307	1
1	236	15.511363856892	1
1	247	16.665560596754	1
1	258	17.412527610895	1
1	264	17.567788801281	1
1	279	18.736049967824	1
1	288	18.995301461297	1
1	299	19.385854455733	1
1	310	19.698527092343	1
1	323	20.815695080558	1
1	334	21.889159758847	1
1	345	22.292979249002	1
1	356	22.854681799391	1
1	359	22.938317255232	1
1	371	23.156252910206	1
1	383	23.487797987787	1
1	396	24.020672819123	1
1	407	25.12569446354	1
1	413	25.241643668027	1
1	426	25.693970321759	1
1	439	27.941474013528	1
1	445	28.136265836728	1
1	460	28.888431560582	1
1	469	29.177399595693	1
1	482	29.752225620496	1
1	488	29.878592536989	1
1	501	30.218525854242	1
1	514	31.768025335277	1
1	517	31.807784943053	1
1	519	31.862623003032	2
1	541	33.119132951151	1
1	550	33.319418100448	1
1	563	34.024712797159	1
1	574	35.313405115438	1
1	585	36.625186096197	1
1	596	38.554517862336	1
1	607	39.96102617344	1
1	618	40.588259987484	1
1	621	40.655725906195	1
1	637	41.198190047755	1
1	648	42.168366858774	1
1	659	42.658381646995	1
1	662	42.707676744985	1
1	667	42.798976255127	1
1	686	43.838710492645	1
1	697	44.833469199529	1
1	708	45.360707487856	1
1	719	46.945123899699	1
1	730	47.513117989401	1
1	741	48.370057576087	1
1	752	49.343794756311	1
1	763	53.144426633098	1
1	774	54.198394440221	1
1	785	55.386857561872	1
1	794	55.661910657505	1
1	800	55.77460630154	1
1	803	55.784997095119	1
1	821	56.258575708829	1
1	835	57.586363608864	1
1	844	57.839289345549	1
1	857	59.363523345031	1
1	868	60.64464925133	1
1	874	60.780014865044	1
1	889	62.181912818523	1
1	900	62.958402182269	1
1	906	63.11503016547	1
1	919	63.489913989273	1
1	932	64.860131608389	1
1	941	65.097953163735	1
1	947	65.227967281386	1
1	958	65.427271997662	1
1	972	65.73245670884	1
1	983	66.017536195677	1
1	996	67.316189921383	1
1	1007	70.705481837674	1
1	1018	71.477776583988	1
1	1027	71.696132946179	1
1	1030	71.705438016355	1
1	1046	72.102058460801	1
1	1059	73.388050832918	1
1	1062	73.404765033355	1
1	1064	73.434112687036	2
1	1086	74.297368242909	1
1	1097	75.210750827878	1
1	1106	75.446453069609	1
1	1119	76.435931958994	1
1	1130	77.656475905826	1
1	1141	78.103727055746	1
1	1152	78.893631558374	1
1	1163	79.620905997173	1
1	1174	80.11132116014	1
1	1185	80.986327661863	1
1	1196	82.098098769161	1
1	1207	83.227079598989	1
1	1218	86.446539582237	1
1	1229	93.004560873664	1
1	1240	94.499404266628	1
1	1251	97.468617515456	1
1	1262	97.975559623819	1
1	1273	99.281302886072	1
1	1284	102.128582934296	1
1	1295	103.23437284856	1
1	1298	103.278415406089	1
1	1314	104.841414683947	1
1	1325	106.029135431656	1
1	1336	106.543658501823	1
1	1347	107.55704302216	1
1	1358	108.666104091003	1
1	1369	109.339907829276	1
1	1378	109.617727358891	1
1	1391	110.371017065349	1
1	1402	111.184099035692	1
1	1413	112.33928516104	1
1	1424	113.894405710132	1
1	1435	114.927248434761	1
1	1446	116.308020670717	1
1	1457	117.73566520882	1
1	1468	120.970449365121	1
1	1474	121.07821190644	1
1	1489	121.913962833157	1
1	1495	122.113850475945	1
1	1510	126.522364576607	1
1	1521	127.672284093972	1
1	1524	127.742872592464	1
1	1538	128.193463331826	1
1	1546	128.34726788216	1
1	1559	128.720121652523	1
1	1567	128.895701000453	1
1	1576	129.045623828944	1
1	1590	129.441582828872	1
1	1595	129.536981485676	1
1	1611	130.738873939975	1
1	1622	131.209553849946	1
1	1633	131.694643140161	1
1	1644	132.481662860724	1
1	1653	132.748724145698	1
1	1666	133.963588005398	1
1	1677	134.433063323806	1
1	1688	136.27176368617	1
1	1699	137.428104346074	1
1	1710	140.48539634578	1
1	1719	140.808735251423	1
1	1732	141.355941050469	1
1	1743	143.016717387704	1
1	1754	143.477095177555	1
1	1760	143.649518256123	1
1	1773	143.96916340666	1
1	1776	144.041342736767	1
1	1794	145.627463518392	1
1	1800	145.746808711981	1
1	1815	147.912372860306	1
1	1826	148.929524151352	1
1	1837	150.237240724022	1
1	1848	152.221358572341	1
1	1851	152.285042821542	1
1	1856	152.420181940007	1
1	1875	153.258506442853	1
1	1886	154.126731221994	1
1	1897	156.647119018956	1
1	1908	157.100113601574	1
1	1911	157.197083275085	1
1	1927	157.742406063721	1
1	1938	161.158804049664	1
1	1949	163.511773194778	1
1	1958	163.908787115941	1
1	1966	164.097061825228	1
1	1981	165.052733660018	1
1	1992	165.544886659947	1
1	1998	165.662790232959	1
1	2013	166.338113609724	1
1	2024	169.266052385612	1
1	2033	169.475685476471	1
1	2046	170.423568483312	1
1	2057	171.423472037701	1
1	2068	173.907039517647	1
1	2079	174.552794526785	1
1	2090	176.708294417064	1
1	2093	176.762349983081	1
1	2107	177.279390558277	1
1	2120	177.982380304225	1
1	2131	180.418648925456	1
1	2142	181.24348440409	1
1	2153	182.345907659559	1
1	2164	183.085495699206	1
1	2173	183.365212094639	1
1	2186	184.294452471407	1
1	2192	184.472801957439	1
1	2207	187.593012980713	1
1	2218	188.552247449844	1
1	2229	190.401923956091	1
1	2240	191.955439146616	1
1	2251	193.675884159242	1
1	2262	195.822363135357	1
1	2273	196.240036063747	1
1	2284	197.125608549367	1
1	2295	198.138868294471	1
1	2301	198.298761838454	1
1	2310	198.467189738	1
1	2324	198.764903498137	1
1	2330	198.90308850718	1
1	2347	199.701604071237	1
2	5	0.32752065585	1
2	16	0.683469909984	1
2	29	1.349993073573	1
2	32	1.449993073573	1
2	46	2.121621925676	1
2	59	2.453776852775	1
2	64	2.553776852775	1
2	69	2.653776852775	1
2	82	3.033365873838	1
2	94	4.130434455501	1
2	103	4.357611652092	1
2	114	4.508023203293	1
2	126	5.558397221029	1
2	137	6.513121310442	1
2	146	6.674046219491	1
2	160	8.481782823876	1
2	163	8.581782823876	1
2	177	10.222622928492	1
2	188	12.769984653197	1
2	199	13.81114066442	1
2	210	14.557584933192	1
2	221	14.726390823024	1
2	224	14.826390823024	1
2	239	15.611463856892	1
2	250	16.765660596754	1
2	261	17.512627610895	1
2	270	17.667888801281	1
2	282	18.836149967824	1
2	291	19.095401461297	1
2	304	19.485954455733	1
2	315	19.798627092343	1
2	326	20.915795080558	1
2	337	21.989259758847	1
2	348	22.393079249002	1
2	361	22.954781799391	1
2	364	23.054781799391	1
2	376	23.256352910206	1
2	386	23.587897987787	1
2	399	24.120772819123	1
2	410	25.22579446354	1
2	419	25.341743668027	1
2	431	25.794070321759	1
2	442	28.041574013528	1
2	451	28.236365836728	1
2	463	28.988531560582	1
2	472	29.277499595693	1
2	485	29.852325620496	1
2	494	29.978692536989	1
2	504	30.318625854242	1
2	521	31.868125335277	1
2	524	31.968125335277	1
2	529	32.068125335277	1
2	544	33.219232951151	1
2	553	33.419518100448	1
2	566	34.124812797159	1
2	577	35.413505115438	1
2	588	36.725286096197	1
2	599	38.654617862336	1
2	610	40.06112617344	1
2	623	40.688359987484	1
2	626	40.788359987484	1
2	640	41.298290047755	1
2	651	42.268466858774	1
2	664	42.758481646995	1
2	669	42.858481646995	1
2	674	42.958481646995	1
2	689	43.938810492645	1
2	700	44.933569199529	1
2	711	45.460807487856	1
2	722	47.045223899699	1
2	733	47.613217989401	1
2	744	48.470157576087	1
2	755	49.443894756311	1
2	766	53.244526633098	1
2	777	54.298494440221	1
2	788	55.486957561872	1
2	797	55.762010657505	1
2	810	55.87470630154	1
2	813	55.97470630154	1
2	826	56.358675708829	1
2	838	57.686463608864	1
2	847	57.939389345549	1
2	860	59.463623345031	1
2	871	60.74474925133	1
2	880	60.880114865044	1
2	892	62.282012818523	1
2	903	63.058502182269	1
2	912	63.21513016547	1
2	924	63.590013989273	1
2	935	64.960231608389	1
2	944	65.198053163735	1
2	955	65.328067281386	1
2	965	65.527371997662	1
2	975	65.83255670884	1
2	986	66.117636195677	1
2	999	67.416289921383	1
2	1010	70.805581837674	1
2	1021	71.577876583988	1
2	1032	71.796232946179	1
2	1037	71.896232946179	1
2	1049	72.202158460801	1
2	1066	73.488150832918	1
2	1069	73.588150832918	1
2	1074	73.688150832918	1
2	1089	74.397468242909	1
2	1100	75.310850827878	1
2	1109	75.546553069609	1
2	1122	76.536031958994	1
2	1133	77.756575905826	1
2	1144	78.203827055746	1
2	1155	78.993731558374	1
2	1166	79.721005997173	1
2	1177	80.21142116014	1
2	1188	81.086427661863	1
2	1199	82.198198769161	1
2	1210	83.327179598989	1
2	1221	86.546639582237	1
2	1232	93.104660873664	1
2	1243	94.599504266628	1
2	1254	97.568717515456	1
2	1265	98.075659623819	1
2	1276	99.381402886072	1
2	1287	102.228682934296	1
2	1300	103.33447284856	1
2	1303	103.43447284856	1
2	1317	104.941514683947	1
2	1328	106.129235431656	1
2	1339	106.643758501823	1
2	1350	107.65714302216	1
2	1361	108.766204091003	1
2	1372	109.440007829276	1
2	1381	109.717827358891	1
2	1394	110.471117065349	1
2	1405	111.284199035692	1
2	1416	112.43938516104	1
2	1427	113.994505710132	1
2	1438	115.027348434761	1
2	1449	116.408120670717	1
2	1460	117.83576520882	1
2	1471	121.070549365121	1
2	1480	121.17831190644	1
2	1492	122.014062833157	1
2	1501	122.213950475945	1
2	1513	126.622464576607	1
2	1526	127.772384093972	1
2	1529	127.872384093972	1
2	1543	128.293563331826	1
2	1552	128.44736788216	1
2	1564	128.820221652523	1
2	1573	128.995801000453	1
2	1583	129.145723828944	1
2	1597	129.541682828872	1
2	1600	129.641682828872	1
2	1614	130.838973939975	1
2	1625	131.309653849946	1
2	1636	131.794743140161	1
2	1647	132.581762860724	1
2	1656	132.848824145698	1
2	1669	134.063688005398	1
2	1680	134.533163323806	1
2	1691	136.37186368617	1
2	1702	137.528204346074	1
2	1713	140.58549634578	1
2	1724	140.908835251423	1
2	1735	141.456041050469	1
2	1746	143.116817387704	1
2	1757	143.577195177555	1
2	1766	143.749618256123	1
2	1778	144.06926340666	1
2	1783	144.16926340666	1
2	1797	145.727563518392	1
2	1806	145.846908711981	1
2	1818	148.012472860306	1
2	1829	149.029624151352	1
2	1840	150.337340724022	1
2	1853	152.321458572341	1
2	1858	152.421458572341	1
2	1863	152.521458572341	1
2	1878	153.358606442853	1
2	1889	154.226831221994	1
2	1900	156.747219018956	1
2	1913	157.200213601574	1
2	1916	157.300213601574	1
2	1930	157.842506063721	1
2	1941	161.258904049664	1
2	1952	163.611873194778	1
2	1963	164.008887115941	1
2	1972	164.197161825228	1
2	1984	165.152833660018	1
2	1995	165.644986659947	1
2	2004	165.762890232959	1
2	2016	166.438213609724	1
2	2027	169.366152385612	1
2	2036	169.575785476471	1
2	2049	170.523668483312	1
2	2060	171.523572037701	1
2	2071	174.007139517647	1
2	2082	174.652894526785	1
2	2095	176.808394417064	1
2	2098	176.908394417064	1
2	2112	177.379490558277	1
2	2123	178.082480304225	1
2	2134	180.518748925456	1
2	2145	181.34358440409	1
2	2156	182.446007659559	1
2	2167	183.185595699206	1
2	2176	183.465312094639	1
2	2189	184.394552471407	1
2	2198	184.572901957439	1
2	2210	187.693112980713	1
2	2221	188.652347449844	1
2	2232	190.502023956091	1
2	2243	192.055539146616	1
2	2254	193.775984159242	1
2	2265	195.922463135357	1
2	2276	196.340136063747	1
2	2287	197.225708549367	1
2	2298	198.238968294471	1
2	2307	198.398861838454	1
2	2317	198.567289738	1
2	2327	198.865003498137	1
2	2338	199.00318850718	1
2	2350	199.801704071237	1
3	8	0.42762065585	1
3	19	0.783569909984	1
3	34	1.450093073573	1
3	37	1.550093073573	1
3	49	2.221721925676	1
3	66	2.553876852775	1
3	71	2.653876852775	1
3	75	2.753876852775	1
3	85	3.133465873838	1
3	97	4.230534455501	1
3	111	4.457711652092	1
3	117	4.608123203293	1
3	129	5.658497221029	1
3	143	6.613221310442	1
3	149	6.774146219491	1
3	165	8.581882823876	1
3	168	8.681882823876	1
3	180	10.322722928492	1
3	191	12.870084653197	1
3	202	13.91124066442	1
3	216	14.657684933192	1
3	226	14.826490823024	1
3	230	14.926490823024	1
3	242	15.711563856892	1
3	253	16.865760596754	1
3	267	17.612727610895	1
3	273	17.767988801281	1
3	285	18.936249967824	1
3	296	19.195501461297	1
3	307	19.586054455733	1
3	318	19.898727092343	1
3	329	21.015895080558	1
3	340	22.089359758847	1
3	351	22.493179249002	1
3	366	23.054881799391	1
3	369	23.154881799391	1
3	379	23.356452910206	1
3	391	23.687997987787	1
3	402	24.220872819123	1
3	416	25.32589446354	1
3	422	25.441843668027	1
3	434	25.894170321759	1
3	448	28.141674013528	1
3	454	28.336465836728	1
3	466	29.088631560582	1
3	477	29.377599595693	1
3	491	29.952425620496	1
3	497	30.078792536989	1
3	509	30.418725854242	1
3	526	31.968225335277	1
3	531	32.068225335277	1
3	535	32.168225335277	1
3	547	33.319332951151	1
3	558	33.519618100448	1
3	569	34.224912797159	1
3	580	35.513605115438	1
3	591	36.825386096197	1
3	602	38.754717862336	1
3	613	40.16122617344	1
3	628	40.788459987484	1
3	631	40.888459987484	1
3	643	41.398390047755	1
3	654	42.368566858774	1
3	671	42.858581646995	1
3	676	42.958581646995	1
3	680	43.058581646995	1
3	692	44.038910492645	1
3	703	45.033669199529	1
3	714	45.560907487856	1
3	725	47.145323899699	1
3	736	47.713317989401	1
3	747	48.570257576087	1
3	758	49.543994756311	1
3	769	53.344626633098	1
3	780	54.398594440221	1
3	791	55.587057561872	1
3	807	55.862110657505	1
3	815	55.97480630154	1
3	819	56.07480630154	1
3	829	56.458775708829	1
3	841	57.786563608864	1
3	852	58.039489345549	1
3	863	59.563723345031	1
3	877	60.84484925133	1
3	883	60.980214865044	1
3	895	62.382112818523	1
3	909	63.158602182269	1
3	915	63.31523016547	1
3	927	63.690113989273	1
3	938	65.060331608389	1
3	952	65.298153163735	1
3	961	65.428167281386	1
3	968	65.627471997662	1
3	980	65.93265670884	1
3	991	66.217736195677	1
3	1002	67.516389921383	1
3	1013	70.905681837674	1
3	1024	71.677976583988	1
3	1039	71.896332946179	1
3	1042	71.996332946179	1
3	1054	72.302258460801	1
3	1071	73.588250832918	1
3	1076	73.688250832918	1
3	1080	73.788250832918	1
3	1092	74.497568242909	1
3	1103	75.410950827878	1
3	1114	75.646653069609	1
3	1125	76.636131958994	1
3	1136	77.856675905826	1
3	1147	78.303927055746	1
3	1158	79.093831558374	1
3	1169	79.821105997173	1
3	1180	80.31152116014	1
3	1191	81.186527661863	1
3	1202	82.298298769161	1
3	1213	83.427279598989	1
3	1224	86.646739582237	1
3	1235	93.204760873664	1
3	1246	94.699604266628	1
3	1257	97.668817515456	1
3	1268	98.175759623819	1
3	1279	99.481502886072	1
3	1290	102.328782934296	1
3	1305	103.43457284856	1
3	1308	103.53457284856	1
3	1320	105.041614683947	1
3	1331	106.229335431656	1
3	1342	106.743858501823	1
3	1353	107.75724302216	1
3	1364	108.866304091003	1
3	1375	109.540107829276	1
3	1386	109.817927358891	1
3	1397	110.571217065349	1
3	1408	111.384299035692	1
3	1419	112.53948516104	1
3	1430	114.094605710132	1
3	1441	115.127448434761	1
3	1452	116.508220670717	1
3	1463	117.93586520882	1
3	1477	121.170649365121	1
3	1483	121.27841190644	1
3	1498	122.114162833157	1
3	1504	122.314050475945	1
3	1516	126.722564576607	1
3	1531	127.872484093972	1
3	1534	127.972484093972	1
3	1549	128.393663331826	1
3	1555	128.54746788216	1
3	1570	128.920321652523	1
3	1579	129.095901000453	1
3	1586	129.245823828944	1
3	1602	129.641782828872	1
3	1605	129.741782828872	1
3	1617	130.939073939975	1
3	1628	131.409753849946	1
3	1639	131.894843140161	1
3	1650	132.681862860724	1
3	1661	132.948924145698	1
3	1672	134.163788005398	1
3	1683	134.633263323806	1
3	1694	136.47196368617	1
3	1705	137.628304346074	1
3	1716	140.68559634578	1
3	1727	141.008935251423	1
3	1738	141.556141050469	1
3	1749	143.216917387704	1
3	1763	143.677295177555	1
3	1769	143.849718256123	1
3	1785	144.16936340666	1
3	1788	144.26936340666	1
3	1803	145.827663518392	1
3	1809	145.947008711981	1
3	1821	148.112572860306	1
3	1832	149.129724151352	1
3	1843	150.437440724022	1
3	1860	152.421558572341	1
3	1865	152.521558572341	1
3	1869	152.621558572341	1
3	1881	153.458706442853	1
3	1892	154.326931221994	1
3	1903	156.847319018956	1
3	1918	157.300313601574	1
3	1921	157.400313601574	1
3	1933	157.942606063721	1
3	1944	161.359004049664	1
3	1955	163.711973194778	1
3	1969	164.108987115941	1
3	1975	164.297261825228	1
3	1987	165.252933660018	1
3	2001	165.745086659947	1
3	2007	165.862990232959	1
3	2019	166.538313609724	1
3	2030	169.466252385612	1
3	2041	169.675885476471	1
3	2052	170.623768483312	1
3	2063	171.623672037701	1
3	2074	174.107239517647	1
3	2085	174.752994526785	1
3	2100	176.908494417064	1
3	2103	177.008494417064	1
3	2115	177.479590558277	1
3	2126	178.182580304225	1
3	2137	180.618848925456	1
3	2148	181.44368440409	1
3	2159	182.546107659559	1
3	2170	183.285695699206	1
3	2181	183.565412094639	1
3	2195	184.494652471407	1
3	2201	184.673001957439	1
3	2213	187.793212980713	1
3	2224	188.752447449844	1
3	2235	190.602123956091	1
3	2246	192.155639146616	1
3	2257	193.876084159242	1
3	2268	196.022563135357	1
3	2279	196.440236063747	1
3	2290	197.325808549367	1
3	2304	198.339068294471	1
3	2313	198.498961838454	1
3	2320	198.667389738	1
3	2335	198.965103498137	1
3	2341	199.10328850718	1
3	2353	199.901804071237	1
4	13	0.62762065585	0.4002
4	21	0.983569909984	0.4002
4	38	1.650093073573	0.4002
4	40	1.850093073573	0.548632078079
4	56	2.421721925676	0.4002
4	73	2.753876852775	0.4002
4	79	2.953876852775	0.558192993742
4	86	3.153876852775	0.623294882821
4	88	3.353876852775	0.420610978937
4	108	4.430534455501	0.4002
4	118	4.657711652092	0.4002
4	120	4.857711652092	0.449788448799
4	131	5.858497221029	0.4002
4	150	6.813221310442	0.4002
4	152	7.013221310442	0.439275090951
4	169	8.781882823876	0.4002
4	171	8.981882823876	0.53457193723
4	182	10.522722928492	0.4002
4	193	13.070084653197	0.4002
4	204	14.11124066442	0.4002
4	227	14.857684933192	0.4002
4	231	15.057684933192	0.431394110168
4	233	15.257684933192	0.558312540122
4	244	15.911563856892	0.4002
4	255	17.065760596754	0.4002
4	274	17.812727610895	0.4002
4	276	18.012727610895	0.444938809614
4	293	19.136249967824	0.4002
4	301	19.395501461297	0.4002
4	312	19.786054455733	0.4002
4	320	20.098727092343	0.4002
4	331	21.215895080558	0.4002
4	342	22.289359758847	0.4002
4	353	22.693179249002	0.4002
4	373	23.254881799391	0.4002
4	380	23.454881799391	0.516564544159
4	388	23.654881799391	0.498628889185
4	393	23.887997987787	0.4002
4	404	24.420872819123	0.4002
4	423	25.52589446354	0.4002
4	428	25.72589446354	0.484250795513
4	436	26.094170321759	0.4002
4	455	28.341674013528	0.4002
4	457	28.541674013528	0.4054081768
4	474	29.288631560582	0.4002
4	479	29.577599595693	0.4002
4	498	30.152425620496	0.4002
4	506	30.352425620496	0.473833083507
4	511	30.618725854242	0.4002
4	533	32.168225335277	0.4002
4	536	32.368225335277	0.560440392224
4	538	32.568225335277	0.705602332245
4	555	33.519332951151	0.4002
4	560	33.719618100448	0.4002
4	571	34.424912797159	0.4002
4	582	35.713605115438	0.4002
4	593	37.025386096197	0.4002
4	604	38.954717862336	0.4002
4	615	40.36122617344	0.4002
4	632	40.988459987484	0.4002
4	634	41.188459987484	0.532734081289
4	645	41.598390047755	0.4002
4	656	42.568566858774	0.4002
4	678	43.058581646995	0.4002
4	681	43.258581646995	0.55090490201
4	683	43.458581646995	0.659605391868
4	694	44.238910492645	0.4002
4	705	45.233669199529	0.4002
4	716	45.760907487856	0.4002
4	727	47.345323899699	0.4002
4	738	47.913317989401	0.4002
4	749	48.770257576087	0.4002
4	760	49.743994756311	0.4002
4	771	53.544626633098	0.4002
4	782	54.598594440221	0.4002
4	804	55.787057561872	0.4002
4	816	56.062110657505	0.4002
4	823	56.262110657505	0.487504355965
4	830	56.462110657505	0.677113562386
4	832	56.662110657505	0.403534948676
4	849	57.986563608864	0.4002
4	854	58.239489345549	0.4002
4	865	59.763723345031	0.4002
4	884	61.04484925133	0.4002
4	886	61.24484925133	0.464834386286
4	897	62.582112818523	0.4002
4	916	63.358602182269	0.4002
4	921	63.558602182269	0.443572016799
4	929	63.890113989273	0.4002
4	949	65.260331608389	0.4002
4	962	65.498153163735	0.4002
4	969	65.698153163735	0.470185882349
4	977	65.898153163735	0.470881166073
4	988	66.13265670884	0.4002
4	993	66.417736195677	0.4002
4	1004	67.716389921383	0.4002
4	1015	71.105681837674	0.4002
4	1034	71.877976583988	0.4002
4	1043	72.096332946179	0.4002
4	1051	72.296332946179	0.590894929824
4	1056	72.502258460801	0.4002
4	1078	73.788250832918	0.4002
4	1081	73.988250832918	0.583485799563
4	1083	74.188250832918	0.754138145882
4	1094	74.697568242909	0.4002
4	1111	75.610950827878	0.4002
4	1116	75.846653069609	0.4002
4	1127	76.836131958994	0.4002
4	1138	78.056675905826	0.4002
4	1149	78.503927055746	0.4002
4	1160	79.293831558374	0.4002
4	1171	80.021105997173	0.4002
4	1182	80.51152116014	0.4002
4	1193	81.386527661863	0.4002
4	1204	82.498298769161	0.4002
4	1215	83.627279598989	0.4002
4	1226	86.846739582237	0.4002
4	1237	93.404760873664	0.4002
4	1248	94.899604266628	0.4002
4	1259	97.868817515456	0.4002
4	1270	98.375759623819	0.4002
4	1281	99.681502886072	0.4002
4	1292	102.528782934296	0.4002
4	1309	103.63457284856	0.4002
4	1311	103.83457284856	0.556157442471
4	1322	105.241614683947	0.4002
4	1333	106.429335431656	0.4002
4	1344	106.943858501823	0.4002
4	1355	107.95724302216	0.4002
4	1366	109.066304091003	0.4002
4	1383	109.740107829276	0.4002
4	1388	110.017927358891	0.4002
4	1399	110.771217065349	0.4002
4	1410	111.584299035692	0.4002
4	1421	112.73948516104	0.4002
4	1432	114.294605710132	0.4002
4	1443	115.327448434761	0.4002
4	1454	116.708220670717	0.4002
4	1465	118.13586520882	0.4002
4	1484	121.370649365121	0.4002
4	1486	121.570649365121	0.492437458681
4	1505	122.314162833157	0.4002
4	1507	122.514162833157	0.400312357212
4	1518	126.922564576607	0.4002
4	1535	128.072484093972	0.4002
4	1540	128.272484093972	0.529611501508
4	1556	128.593663331826	0.4002
4	1561	128.793663331826	0.446395449666
4	1580	129.120321652523	0.4002
4	1587	129.320321652523	0.42462065207
4	1592	129.520321652523	0.474697823579
4	1606	129.841782828872	0.4002
4	1608	130.041782828872	0.504801343196
4	1619	131.139073939975	0.4002
4	1630	131.609753849946	0.4002
4	1641	132.094843140161	0.4002
4	1658	132.881862860724	0.4002
4	1663	133.148924145698	0.4002
4	1674	134.363788005398	0.4002
4	1685	134.833263323806	0.4002
4	1696	136.67196368617	0.4002
4	1707	137.828304346074	0.4002
4	1721	140.88559634578	0.4002
4	1729	141.208935251423	0.4002
4	1740	141.756141050469	0.4002
4	1751	143.416917387704	0.4002
4	1770	143.877295177555	0.4002
4	1780	144.077295177555	0.427776921432
4	1789	144.36936340666	0.4002
4	1791	144.56936340666	0.528020669893
4	1810	146.027663518392	0.4002
4	1812	146.227663518392	0.480854806411
4	1823	148.312572860306	0.4002
4	1834	149.329724151352	0.4002
4	1845	150.637440724022	0.4002
4	1867	152.621558572341	0.4002
4	1870	152.821558572341	0.536515750799
4	1872	153.021558572341	0.601376632334
4	1883	153.658706442853	0.4002
4	1894	154.526931221994	0.4002
4	1905	157.047319018956	0.4002
4	1922	157.500313601574	0.4002
4	1924	157.700313601574	0.503230326489
4	1935	158.142606063721	0.4002
4	1946	161.559004049664	0.4002
4	1960	163.911973194778	0.4002
4	1976	164.308987115941	0.4002
4	1978	164.508987115941	0.411925290713
4	1989	165.452933660018	0.4002
4	2008	165.945086659947	0.4002
4	2010	166.145086659947	0.482296426988
4	2021	166.738313609724	0.4002
4	2038	169.666252385612	0.4002
4	2043	169.875885476471	0.4002
4	2054	170.823768483312	0.4002
4	2065	171.823672037701	0.4002
4	2076	174.307239517647	0.4002
4	2087	174.952994526785	0.4002
4	2104	177.108494417064	0.4002
4	2109	177.308494417064	0.546144433983
4	2117	177.679590558277	0.4002
4	2128	178.382580304225	0.4002
4	2139	180.818848925456	0.4002
4	2150	181.64368440409	0.4002
4	2161	182.746107659559	0.4002
4	2178	183.485695699206	0.4002
4	2183	183.765412094639	0.4002
4	2202	184.694652471407	0.4002
4	2204	184.894652471407	0.421850513968
4	2215	187.993212980713	0.4002
4	2226	188.952447449844	0.4002
4	2237	190.802123956091	0.4002
4	2248	192.355639146616	0.4002
4	2259	194.076084159242	0.4002
4	2270	196.222563135357	0.4002
4	2281	196.640236063747	0.4002
4	2292	197.525808549367	0.4002