version 3
run BaseVersion-2-20240511-20:45:07-11874
attr configname BaseVersion
attr datetime 20240511-20:45:07
attr datetimef 20240511-204507
attr experiment BaseVersion
attr inifile omnetpp.ini
attr iterationvars $genInterval=0.2
attr iterationvarsd genInterval=0.2
attr iterationvarsf genInterval=0.2-
attr measurement $genInterval=0.2
attr network Network
attr processid 11874
attr repetition 0
attr replication #0
attr resultdir results
attr runnumber 2
attr seedset 2
itervar genInterval 0.2
config network Network
config sim-time-limit 200s
config Network.nodeTx.gen.generationInterval exponential(0.2)
config Network.nodeTx.gen.packetByteSize 12500
config Network.nodeTx.queue.bufferSize 200
config Network.nodeRx.queue.bufferSize 200
config Network.queue.bufferSize 200

vector 0 Network.nodeTx.gen packetGen ETV
vector 1 Network.nodeTx.queue bufferSize ETV
vector 2 Network.queue bufferSize ETV
vector 3 Network.nodeRx.queue bufferSize ETV
vector 4 Network.nodeRx.sink Delay ETV
vector 5 Network.nodeRx.sink packetUsed ETV
0	1	0.114538397925	1
0	4	0.15547197478	1
0	6	0.160725622149	1
0	24	0.69702927424	1
0	32	0.85658085902	1
0	48	1.446849733555	1
0	54	1.56114979718	1
0	63	1.693770058208	1
0	71	1.802842361652	1
0	76	1.880132695456	1
0	83	1.960328180121	1
0	85	1.993876258359	1
0	91	2.039670517305	1
0	105	2.27970830462	1
0	117	2.472841777648	1
0	120	2.498397212233	1
0	124	2.569633561714	1
0	135	2.702419565487	1
0	137	2.764494358611	1
0	149	2.964830169755	1
0	161	3.158944621383	1
0	175	3.499943640207	1
0	183	3.650583421909	1
0	195	3.880370524256	1
0	198	3.90927857908	1
0	205	4.047333308752	1
0	215	4.191469101016	1
0	225	4.368232347101	1
0	230	4.409008370493	1
0	243	4.663426033318	1
0	255	4.971161491871	1
0	258	5.03097699788	1
0	273	5.415772884114	1
0	281	5.573795849995	1
0	291	5.710133206656	1
0	299	5.814749231701	1
0	313	6.189640309045	1
0	316	6.228596388112	1
0	318	6.245195653213	1
0	341	6.944071509278	1
0	349	7.084810467119	1
0	354	7.155295367916	1
0	356	7.168798411447	1
0	361	7.236697040012	1
0	369	7.348463075238	1
0	371	7.373166461457	1
0	377	7.393469140195	1
0	379	7.433581000757	1
0	383	7.460781597482	1
0	393	7.597139885006	1
0	401	7.778777270334	1
0	413	7.945611213717	1
0	419	7.996850996407	1
0	421	8.047014378372	1
0	425	8.06963595367	1
0	441	8.36140137449	1
0	447	8.411172176191	1
0	455	8.58339450889	1
0	463	8.669497648598	1
0	469	8.706239748247	1
0	475	8.83238222931	1
0	483	8.923988187905	1
0	485	8.969053180419	1
0	497	9.095528925266	1
0	509	9.30008526162	1
0	521	9.512502484105	1
0	527	9.644471981036	1
0	543	9.959566005198	1
0	551	10.100301174566	1
0	563	10.317872321556	1
0	566	10.415715368928	1
0	577	10.605596832298	1
0	591	10.921220975991	1
0	609	11.860064909484	1
0	615	12.033567014881	1
0	620	12.059016632358	1
0	624	12.094435346442	1
0	626	12.126601718384	1
0	641	12.367898471559	1
0	657	12.750387208039	1
0	671	13.418319719661	1
0	679	13.560796272331	1
0	689	13.699429054061	1
0	692	13.748422527581	1
0	709	14.189006788557	1
0	727	15.189132650318	1
0	732	15.272725324637	1
0	737	15.348479487453	1
0	749	15.515949580353	1
0	752	15.575828505441	1
0	761	15.687393072177	1
0	775	16.018673071187	1
0	783	16.133478438999	1
0	788	16.22076911568	1
0	803	16.520490860361	1
0	809	16.64665401336	1
0	819	16.800057617898	1
0	826	16.864146404648	1
0	843	17.478851537593	1
0	853	17.798947557242	1
0	861	17.956091368242	1
0	875	18.292641980079	1
0	878	18.309774238733	1
0	895	18.901424635715	1
0	898	18.992673941087	1
0	913	19.338864736977	1
0	925	19.719425963769	1
0	933	19.86420461942	1
0	941	19.968472441597	1
0	944	20.018420814404	1
0	946	20.023936654421	1
0	965	20.298518651389	1
0	968	20.355303742053	1
0	977	20.46826782324	1
0	979	20.48216878838	1
0	999	20.920563211166	1
0	1017	21.93888924218	1
0	1031	22.505589148907	1
0	1045	23.210807401393	1
0	1053	23.350645381586	1
0	1067	23.672791481638	1
0	1077	23.914952054823	1
0	1085	24.099120830404	1
0	1097	24.344324981885	1
0	1107	24.633924778554	1
0	1115	24.765103441377	1
0	1118	24.80218280446	1
0	1139	25.447532803154	1
0	1142	25.516884297978	1
0	1147	25.627917323808	1
0	1159	25.776412910837	1
0	1166	25.854392556584	1
0	1171	25.942597837071	1
0	1185	26.229635942306	1
0	1188	26.23898697221	1
0	1205	26.778493792566	1
0	1221	27.595215574836	1
0	1231	27.843631689264	1
0	1239	27.960079873881	1
0	1249	28.105806047531	1
0	1257	28.246042095029	1
0	1273	28.677689872083	1
0	1276	28.755866653631	1
0	1288	28.917189791712	1
0	1291	28.977341836083	1
0	1304	29.147837251862	1
0	1309	29.245679396786	1
0	1316	29.345832440512	1
0	1332	29.702610820427	1
0	1344	30.224832042239	1
0	1356	30.491760034912	1
0	1359	30.492872004589	1
0	1361	30.58822467084	1
0	1377	30.848982195561	1
0	1380	30.851602756775	1
0	1386	30.93953756766	1
0	1403	31.258846785212	1
0	1408	31.306735226883	1
0	1413	31.369509994182	1
0	1419	31.459401984934	1
0	1427	31.634184721056	1
0	1443	32.055424451287	1
0	1446	32.060601059226	1
0	1450	32.150900530756	1
0	1465	32.367961982862	1
0	1475	32.50787831721	1
0	1480	32.605927234423	1
0	1495	32.89769014539	1
0	1501	33.035152511339	1
0	1517	33.52694315819	1
0	1523	33.634139653392	1
0	1537	33.984303092362	1
0	1540	34.070728133271	1
0	1547	34.176847573414	1
0	1559	34.336984209951	1
0	1569	34.536290673886	1
0	1585	35.258013898711	1
0	1590	35.341697102365	1
0	1595	35.365628709361	1
0	1601	35.461782725693	1
0	1605	35.536942198603	1
0	1627	36.19340958722	1
0	1630	36.201948859492	1
0	1641	36.410214364026	1
0	1653	36.678401908401	1
0	1669	37.311685491237	1
0	1679	37.525989447021	1
0	1689	37.851359299073	1
0	1694	37.899680829767	1
0	1699	37.95179435631	1
0	1705	38.059623408465	1
0	1721	38.482350568723	1
0	1731	38.688826694538	1
0	1739	38.86836777888	1
0	1751	39.085002982291	1
0	1763	39.393519877343	1
0	1766	39.430900797626	1
0	1773	39.582819930606	1
0	1789	40.009645486039	1
0	1803	40.699873733666	1
0	1812	41.00089666264	1
0	1820	41.172008021219	1
0	1823	41.200771520949	1
0	1831	41.330346409994	1
0	1847	41.736730759263	1
0	1855	41.846069120633	1
0	1867	42.122352677418	1
0	1875	42.305101459242	1
0	1889	42.625579674372	1
0	1892	42.648117699772	1
0	1899	42.804883221121	1
0	1906	42.89684875054	1
0	1912	42.946755988383	1
0	1914	42.995375857782	1
0	1936	43.496704840324	1
0	1948	43.825936776937	1
0	1954	44.005275859446	1
0	1968	44.325391899648	1
0	1971	44.410394254519	1
0	1982	44.572123582704	1
0	1989	44.633368440747	1
0	2004	45.084405216923	1
0	2016	45.57489034433	1
0	2029	46.104299900024	1
0	2035	46.213154135246	1
0	2050	46.973191353917	1
0	2056	47.128580394369	1
0	2071	47.628102730248	1
0	2077	47.815627139661	1
0	2080	47.823793879214	1
0	2096	48.173821238639	1
0	2108	48.437789638845	1
0	2116	48.633190650618	1
0	2131	49.086583815089	1
0	2134	49.125473694125	1
0	2148	49.489296392139	1
0	2154	49.66823030273	1
0	2165	49.822000103262	1
0	2175	49.956381443355	1
0	2180	50.033902134708	1
0	2191	50.192675952636	1
0	2201	50.293927829709	1
0	2213	50.534403060714	1
0	2216	50.599393806984	1
0	2221	50.655816305562	1
0	2239	51.206367386039	1
0	2242	51.247680517458	1
0	2249	51.372308722291	1
0	2251	51.395746572508	1
0	2271	51.778246042068	1
0	2274	51.842303419809	1
0	2281	51.890149716735	1
0	2283	51.892210303672	1
0	2285	51.892235022035	1
0	2297	52.09073968206	1
0	2299	52.110239375031	1
0	2305	52.180199757311	1
0	2307	52.21870235336	1
0	2309	52.260177690232	1
0	2321	52.404840900873	1
0	2323	52.424868635446	1
0	2345	52.848905261922	1
0	2353	52.915652085353	1
0	2369	53.22288206903	1
0	2372	53.27127711618	1
0	2381	53.422205552125	1
0	2387	53.489469046899	1
0	2395	53.553465440673	1
0	2401	53.680973826088	1
0	2403	53.686321516835	1
0	2415	53.845799544929	1
0	2431	54.253395937147	1
0	2443	54.626407984492	1
0	2448	54.690845536008	1
0	2467	55.58409605986	1
0	2470	55.61547603422	1
0	2472	55.625496537354	1
0	2479	55.766302427062	1
0	2485	55.819126332898	1
0	2493	55.90074845304	1
0	2505	56.106926897647	1
0	2507	56.142201657496	1
0	2509	56.177421822684	1
0	2515	56.226932119129	1
0	2537	56.635200861936	1
0	2551	56.997410912675	1
0	2554	57.046438245625	1
0	2569	57.301280124008	1
0	2579	57.572049464783	1
0	2582	57.582621672512	1
0	2593	57.794319593717	1
0	2603	57.989566138003	1
0	2617	58.31034232846	1
0	2620	58.377792226663	1
0	2622	58.38414146286	1
0	2641	58.719237724323	1
0	2644	58.771400065648	1
0	2655	58.929275611809	1
0	2667	59.173179213375	1
0	2670	59.176867012207	1
0	2672	59.195194152009	1
0	2674	59.198442441269	1
0	2676	59.204655861538	1
0	2703	59.751439425635	1
0	2708	59.839803511361	1
0	2715	59.938854894206	1
0	2727	60.117068200687	1
0	2741	60.600119357504	1
0	2744	60.61084650662	1
0	2759	60.95321304545	1
0	2762	60.966796807333	1
0	2764	60.985740361554	1
0	2766	60.994635507795	1
0	2771	61.083343779103	1
0	2779	61.183898987429	1
0	2781	61.187732519333	1
0	2793	61.408514005627	1
0	2801	61.528091123163	1
0	2807	61.572227219134	1
0	2809	61.578395003286	1
0	2831	61.99631997382	1
0	2837	62.05935912423	1
0	2845	62.172622950384	1
0	2847	62.173140133403	1
0	2859	62.366468323102	1
0	2865	62.480210800826	1
0	2869	62.548829108834	1
0	2881	62.725775022858	1
0	2893	62.916809699952	1
0	2911	63.882079061863	1
0	2927	64.496428859606	1
0	2933	64.610799217683	1
0	2943	64.729645995559	1
0	2948	64.819663415212	1
0	2953	64.866062395687	1
0	2969	65.278976670396	1
0	2977	65.389781513813	1
0	2987	65.522520070678	1
0	2995	65.640124143697	1
0	3009	65.912531950646	1
0	3015	66.054231828715	1
0	3029	66.334863747265	1
0	3035	66.484060818603	1
0	3042	66.562279554075	1
0	3044	66.57095067578	1
0	3059	66.836821145509	1
0	3062	66.872746764906	1
0	3068	66.913804970954	1
0	3073	67.033454998922	1
0	3079	67.061788855317	1
0	3093	67.307969408143	1
0	3095	67.309973799832	1
0	3111	67.610618472986	1
0	3118	67.703993316757	1
0	3131	68.004202419704	1
0	3134	68.006374354937	1
0	3141	68.146118390149	1
0	3157	68.523502165948	1
0	3171	69.151642665778	1
0	3174	69.207365141514	1
0	3179	69.288020754949	1
0	3193	69.515924646161	1
0	3201	69.647271557351	1
0	3213	69.873378695398	1
0	3225	70.149340978427	1
0	3237	70.583349768606	1
0	3249	70.973509508534	1
0	3252	71.006854041402	1
0	3259	71.113898215614	1
0	3277	71.700239955955	1
0	3287	72.077917624745	1
0	3292	72.147473049619	1
0	3297	72.265075926599	1
0	3313	72.531892632521	1
0	3323	72.783470812055	1
0	3331	72.912547643047	1
0	3334	72.914244493973	1
0	3336	72.950277385163	1
0	3338	72.955382268682	1
0	3357	73.306799798021	1
0	3373	73.870989259844	1
0	3381	74.026163673755	1
0	3384	74.047711442085	1
0	3393	74.135155985845	1
0	3405	74.352078803034	1
0	3419	74.721107920575	1
0	3422	74.787715996194	1
0	3424	74.794180323997	1
0	3429	74.839019732303	1
0	3431	74.853047417601	1
0	3439	74.951361255186	1
0	3451	75.149230993241	1
0	3471	75.669703253374	1
0	3481	75.871243887264	1
0	3489	76.040165480815	1
0	3503	76.333872082221	1
0	3515	76.830968523428	1
0	3523	76.947428776199	1
0	3535	77.189738555813	1
0	3547	77.580784925414	1
0	3555	77.719901536445	1
0	3560	77.816045732294	1
0	3571	77.957124840855	1
0	3587	78.626356794177	1
0	3590	78.675746930992	1
0	3605	78.978847093947	1
0	3608	78.97978197972	1
0	3615	79.090798358442	1
0	3621	79.198999059863	1
0	3627	79.283958662665	1
0	3635	79.44969528609	1
0	3647	79.604645973064	1
0	3661	80.023049014606	1
0	3669	80.135899183632	1
0	3681	80.362282232758	1
0	3691	80.667515871252	1
0	3703	81.03696993997	1
0	3713	81.257089091058	1
0	3727	81.778263501211	1
0	3737	82.014196868138	1
0	3751	82.580633629165	1
0	3754	82.664903720693	1
0	3769	83.003488446037	1
0	3777	83.174988592144	1
0	3780	83.203161862266	1
0	3789	83.311730862941	1
0	3795	83.396853208208	1
0	3797	83.411066323334	1
0	3799	83.457832033589	1
0	3805	83.478360004392	1
0	3827	83.882415805737	1
0	3832	83.933729028447	1
0	3847	84.248090236364	1
0	3859	84.642786332968	1
0	3864	84.728635964661	1
0	3869	84.794575807089	1
0	3881	84.962970468453	1
0	3884	84.989726711916	1
0	3901	85.316812814517	1
0	3904	85.332245361404	1
0	3919	85.690390853396	1
0	3922	85.769250273953	1
0	3927	85.815332673931	1
0	3943	86.098275259696	1
0	3953	86.360646411135	1
0	3959	86.465901837112	1
0	3973	86.791233062371	1
0	3983	87.073760962699	1
0	3986	87.082578308983	1
0	3990	87.145569165232	1
0	3992	87.168244880166	1
0	4013	87.570497174682	1
0	4021	87.684712696832	1
0	4039	88.414639569424	1
0	4042	88.464557922613	1
0	4057	88.746685995222	1
0	4069	89.171778168069	1
0	4083	89.760874770379	1
0	4093	90.01524484665	1
0	4096	90.055737810242	1
0	4109	90.305397503194	1
0	4127	91.178704641119	1
0	4137	91.472517834891	1
0	4140	91.480769708533	1
0	4144	91.561088339797	1
0	4149	91.66166447979	1
0	4157	91.713576784119	1
0	4169	91.896109438719	1
0	4181	92.092993356585	1
0	4184	92.125611637513	1
0	4191	92.232662368501	1
0	4193	92.271001719533	1
0	4215	92.823232033618	1
0	4218	92.855424609075	1
0	4229	93.061121979142	1
0	4232	93.063787063973	1
0	4241	93.16163262139	1
0	4243	93.161941006093	1
0	4261	93.548310440149	1
0	4264	93.556739413357	1
0	4271	93.652602408398	1
0	4279	93.763501925632	1
0	4281	93.80278030007	1
0	4303	94.469844806961	1
0	4315	94.774184643728	1
0	4318	94.814531110753	1
0	4325	94.942341936171	1
0	4339	95.215670293401	1
0	4342	95.275750929877	1
0	4349	95.358752005628	1
0	4361	95.594542521631	1
0	4373	95.805132030947	1
0	4389	96.592447203078	1
0	4399	96.797398728676	1
0	4402	96.853938587772	1
0	4409	96.904427988422	1
0	4423	97.216789861912	1
0	4435	97.494251447363	1
0	4445	97.78163028789	1
0	4453	97.902686234103	1
0	4456	97.928261952306	1
0	4458	97.966892679499	1
0	4479	98.33204190205	1
0	4482	98.39091993485	1
0	4489	98.514802240105	1
0	4503	98.773457841182	1
0	4506	98.800342802212	1
0	4513	98.89952175211	1
0	4519	99.053244000393	1
0	4527	99.150986213271	1
0	4533	99.221327319178	1
0	4547	99.486695047691	1
0	4552	99.52534506441	1
0	4569	100.251854841056	1
0	4572	100.268365617133	1
0	4576	100.323869066557	1
0	4581	100.368222739873	1
0	4583	100.414513020897	1
0	4591	100.526792511291	1
0	4597	100.637264226043	1
0	4609	100.842603552606	1
0	4627	101.095726970532	1
0	4630	101.114013928442	1
0	4647	101.495680145899	1
0	4657	101.747246718349	1
0	4660	101.833626053314	1
0	4665	101.855086268724	1
0	4669	101.945375925298	1
0	4675	101.983995586867	1
0	4681	102.065978476496	1
0	4695	102.315857300222	1
0	4701	102.420092579224	1
0	4717	102.85311630657	1
0	4720	102.865556845442	1
0	4739	103.682099741176	1
0	4744	103.709686786807	1
0	4755	103.921319262199	1
0	4763	104.067499469178	1
0	4773	104.197416018077	1
0	4787	104.627426056449	1
0	4790	104.645802531365	1
0	4792	104.681469857554	1
0	4803	104.845189623405	1
0	4817	105.105626550413	1
0	4822	105.145597478864	1
0	4824	105.194753884991	1
0	4835	105.339228739674	1
0	4851	105.699549315823	1
0	4857	105.887323136676	1
0	4864	105.908545442282	1
0	4877	106.26675237886	1
0	4882	106.357729164766	1
0	4887	106.435967827362	1
0	4899	106.613847501247	1
0	4919	107.513327728903	1
0	4925	107.640565820141	1
0	4947	108.698249627425	1
0	4950	108.789355112011	1
0	4965	109.139268535051	1
0	4979	109.844265550689	1
0	4989	110.081199313537	1
0	4997	110.233221267557	1
0	5011	110.497824942255	1
0	5017	110.600923889704	1
0	5031	111.017242764941	1
0	5034	111.025666905579	1
0	5051	111.6309470685	1
0	5056	111.696622094014	1
0	5069	112.079086316832	1
0	5081	112.298741245476	1
0	5091	112.503593642711	1
0	5094	112.507334326111	1
0	5096	112.522602224094	1
0	5098	112.569251511134	1
0	5109	112.764557727134	1
0	5111	112.769153443361	1
0	5117	112.85630137045	1
0	5119	112.867296155945	1
0	5123	112.90330784932	1
0	5133	113.016481493306	1
0	5155	113.463777650518	1
0	5163	113.531559442321	1
0	5177	113.880028184379	1
0	5182	113.933967073732	1
0	5191	114.083546224185	1
0	5205	114.343223652954	1
0	5211	114.467742481254	1
0	5216	114.513429618913	1
0	5223	114.647824714678	1
0	5231	114.692427471875	1
0	5233	114.75284318458	1
0	5249	114.987635422398	1
0	5259	115.090681794204	1
0	5262	115.148103491732	1
0	5269	115.262881386515	1
0	5277	115.293743745337	1
0	5279	115.296777871079	1
0	5281	115.324924575133	1
0	5303	115.771734012651	1
0	5319	116.350581816255	1
0	5322	116.356498336771	1
0	5324	116.404719844862	1
0	5331	116.49804742769	1
0	5343	116.725572993825	1
0	5345	116.745730152393	1
0	5355	116.874180249982	1
0	5359	116.91805147733	1
0	5369	117.08892432405	1
0	5387	117.659842451296	1
0	5395	117.767520595593	1
0	5400	117.860331642024	1
0	5405	117.888912514226	1
0	5419	118.150040399216	1
0	5424	118.230332099413	1
0	5429	118.257303721372	1
0	5431	118.288498965287	1
0	5435	118.346377783628	1
0	5457	118.708864358747	1
0	5471	119.134986571331	1
0	5477	119.241538332787	1
0	5493	119.708758759514	1
0	5496	119.714805605868	1
0	5498	119.782638650241	1
0	5517	120.162636577708	1
0	5531	120.845572947005	1
0	5536	120.897987667663	1
0	5547	121.118571578668	1
0	5561	121.591299054672	1
0	5569	121.73113483188	1
0	5574	121.806040897592	1
0	5581	121.901004710079	1
0	5587	122.026977854147	1
0	5595	122.109285040866	1
0	5613	122.751595558911	1
0	5627	123.358950998945	1
0	5639	123.763818176558	1
0	5649	124.00021727801	1
0	5652	124.049598752064	1
0	5663	124.202356332045	1
0	5675	124.44636373464	1
0	5678	124.455256478976	1
0	5685	124.574247786268	1
0	5687	124.631132165087	1
0	5693	124.650097180264	1
0	5715	125.223637909585	1
0	5723	125.367335337458	1
0	5733	125.530109320476	1
0	5738	125.609273204697	1
0	5745	125.697756572249	1
0	5761	126.098690697007	1
0	5764	126.100589759232	1
0	5775	126.374311152861	1
0	5780	126.432796018242	1
0	5787	126.523705882026	1
0	5793	126.582372601859	1
0	5805	126.858805212478	1
0	5812	126.896236384029	1
0	5817	127.037593066087	1
0	5825	127.122210956763	1
0	5831	127.222189485796	1
0	5837	127.267481558322	1
0	5841	127.325885675393	1
0	5843	127.338879058935	1
0	5863	127.671840859671	1
0	5868	127.692460229647	1
0	5883	127.986251292917	1
0	5891	128.123575993158	1
0	5903	128.441224101725	1
0	5906	128.455665263568	1
0	5910	128.494454316278	1
0	5929	129.041600972323	1
0	5937	129.226940328542	1
0	5942	129.273099287146	1
0	5949	129.355829582947	1
0	5955	129.480633055509	1
0	5973	129.988406312111	1
0	5981	130.095521614793	1
0	5984	130.179405822587	1
0	5991	130.248281061591	1
0	6003	130.457548765732	1
0	6010	130.535721762529	1
0	6015	130.580941512014	1
0	6017	130.628490838735	1
0	6037	131.081943634967	1
0	6042	131.147718985525	1
0	6055	131.485162410488	1
0	6060	131.510072217194	1
0	6073	131.862770961128	1
0	6085	132.096525477633	1
0	6095	132.307855965467	1
0	6105	132.514716703716	1
0	6115	132.81245958085	1
0	6118	132.887116114803	1
0	6133	133.143064555462	1
0	6145	133.567616137498	1
0	6157	133.95552539733	1
0	6160	134.053199890281	1
0	6179	134.803730413631	1
0	6187	134.992611518519	1
0	6197	135.128818967608	1
0	6205	135.276937734893	1
0	6212	135.353637065336	1
0	6217	135.432262414307	1
0	6229	135.643082288898	1
0	6245	136.174336403482	1
0	6248	136.195400715859	1
0	6263	136.572440855652	1
0	6266	136.572817742066	1
0	6281	136.940742675973	1
0	6284	136.951400501778	1
0	6301	137.568482169542	1
0	6311	137.781213097661	1
0	6314	137.781710199404	1
0	6321	137.97190290512	1
0	6333	138.107404565357	1
0	6341	138.261998128273	1
0	6357	138.817842228007	1
0	6369	139.282899594793	1
0	6374	139.311772251636	1
0	6376	139.379108458636	1
0	6381	139.435314411715	1
0	6393	139.634851121972	1
0	6401	139.775515646144	1
0	6413	139.905985928689	1
0	6425	140.13288865197	1
0	6435	140.357442667633	1
0	6438	140.438363749395	1
0	6449	140.569427398807	1
0	6452	140.642589183463	1
0	6459	140.677525805556	1
0	6475	140.976567301108	1
0	6478	140.98292777773	1
0	6480	140.989608926483	1
0	6501	141.569237843317	1
0	6511	141.87740486983	1
0	6523	142.175667255438	1
0	6529	142.28757951119	1
0	6545	142.831411314041	1
0	6553	143.029727058546	1
0	6558	143.082436200256	1
0	6571	143.326933509995	1
0	6576	143.348031853175	1
0	6578	143.368763939733	1
0	6589	143.623511881835	1
0	6607	144.09187306225	1
0	6617	144.340153093905	1
0	6627	144.685698836809	1
0	6632	144.741627108406	1
0	6637	144.835749929982	1
0	6649	145.040955910148	1
0	6652	145.084287418457	1
0	6658	145.128416725472	1
0	6663	145.141389601008	1
0	6665	145.186493751597	1
0	6671	145.260303684094	1
0	6695	145.735462693887	1
0	6707	145.985251119541	1
0	6715	146.158690992272	1
0	6729	146.494214766124	1
0	6735	146.595318075553	1
0	6738	146.674397755217	1
0	6755	146.977913146646	1
0	6758	147.027679762602	1
0	6760	147.044765061444	1
0	6767	147.124084227689	1
0	6773	147.25853892856	1
0	6797	147.925434626337	1
0	6807	148.185461983549	1
0	6810	148.205667235318	1
0	6817	148.328789791018	1
0	6819	148.364181012954	1
0	6839	148.760247216115	1
0	6849	148.99723760294	1
0	6852	149.05069882039	1
0	6854	149.080808405645	1
0	6861	149.152006660777	1
0	6867	149.214026526675	1
0	6875	149.367059590475	1
0	6893	149.692148527881	1
0	6905	150.000262330532	1
0	6908	150.071772191704	1
0	6919	150.275823190142	1
0	6929	150.457595144064	1
0	6943	150.749713210198	1
0	6951	150.919819561062	1
0	6963	151.279393237838	1
0	6968	151.341090902916	1
0	6979	151.561447293416	1
0	6984	151.618646469231	1
0	6986	151.646697710614	1
0	6993	151.715104381757	1
0	6999	151.763249078207	1
0	7019	152.180647187107	1
0	7022	152.277844179568	1
0	7027	152.281631441949	1
0	7043	152.649480407067	1
0	7046	152.668702519163	1
0	7048	152.675990710532	1
0	7055	152.759460789079	1
0	7063	152.893603542255	1
0	7065	152.943373176363	1
0	7077	153.139431924867	1
0	7089	153.304931089845	1
0	7095	153.367998658138	1
0	7103	153.523070245799	1
0	7109	153.645626877466	1
0	7121	153.782409664721	1
0	7131	153.943863856177	1
0	7136	154.015414122589	1
0	7149	154.288614574148	1
0	7157	154.431876744061	1
0	7173	154.899290652968	1
0	7183	155.207860186353	1
0	7186	155.254297916094	1
0	7201	155.589099158643	1
0	7204	155.618151428292	1
0	7211	155.770368503777	1
0	7217	155.843193640643	1
0	7233	156.171518942398	1
0	7241	156.304070652873	1
0	7244	156.311045984017	1
0	7271	157.768824421526	1
0	7274	157.802287237448	1
0	7285	158.049108732861	1
0	7299	158.324920872782	1
0	7305	158.479059096948	1
0	7312	158.576243395645	1
0	7317	158.616121068601	1
0	7325	158.692636428627	1
0	7327	158.711201929805	1
0	7337	158.880932467161	1
0	7341	158.944534822398	1
0	7347	159.037711812973	1
0	7355	159.14060975013	1
0	7375	159.621156947608	1
0	7378	159.635048089161	1
0	7385	159.732916768379	1
0	7397	159.928528480044	1
0	7411	160.290410383185	1
0	7414	160.300823759435	1
0	7419	160.48496571757	1
0	7427	160.5574107243	1
0	7443	161.043537096991	1
0	7446	161.088576990268	1
0	7453	161.220927457191	1
0	7473	162.004974493428	1
0	7487	162.641454665211	1
0	7492	162.705637193757	1
0	7501	162.877576585011	1
0	7508	162.961179260967	1
0	7510	162.966806549615	1
0	7521	163.171496935064	1
0	7535	163.440044968941	1
0	7545	163.660223807735	1
0	7557	164.055457592942	1
0	7569	164.392581709354	1
0	7572	164.413331852186	1
0	7579	164.50150155143	1
0	7597	165.163278256496	1
0	7621	166.713518735562	1
0	7627	166.879278229562	1
0	7637	167.00311180439	1
0	7649	167.273067193706	1
0	7657	167.462066436611	1
0	7664	167.512787328058	1
0	7681	168.232744047337	1
0	7695	168.79940721002	1
0	7698	168.845174713735	1
0	7709	169.051362709567	1
0	7712	169.08729153876	1
0	7721	169.244045414805	1
0	7727	169.279732686217	1
0	7747	169.930582468087	1
0	7763	170.789985346624	1
0	7771	170.952808331713	1
0	7785	171.354133240183	1
0	7793	171.505848975057	1
0	7803	171.697450387389	1
0	7808	171.706610376848	1
0	7823	172.257071078684	1
0	7831	172.415174122892	1
0	7834	172.44835373392	1
0	7851	172.721151445969	1
0	7854	172.816025431633	1
0	7861	172.907926254817	1
0	7871	173.055872594691	1
0	7883	173.283338655761	1
0	7888	173.307584383894	1
0	7893	173.473656451439	1
0	7909	173.864207426578	1
0	7914	173.910839895661	1
0	7916	173.950455160372	1
0	7927	174.108745655532	1
0	7933	174.210958966092	1
0	7941	174.340207389088	1
0	7947	174.427720649399	1
0	7955	174.510133905617	1
0	7957	174.55282259065	1
0	7973	174.770140682932	1
0	7976	174.796171057775	1
0	7978	174.808791771027	1
0	7999	175.231572866356	1
0	8004	175.324861715494	1
0	8017	175.656938146378	1
0	8025	175.770809028844	1
0	8028	175.826363596375	1
0	8049	176.555279628444	1
0	8057	176.704060785278	1
0	8069	176.943658504864	1
0	8072	176.956352822655	1
0	8083	177.152939710716	1
0	8095	177.476866656755	1
0	8100	177.510774066682	1
0	8102	177.544833308532	1
0	8107	177.659051937992	1
0	8129	178.222275838935	1
0	8134	178.315075410377	1
0	8143	178.465001360339	1
0	8159	179.02901308432	1
0	8167	179.213547692593	1
0	8177	179.334142318528	1
0	8189	179.54733280434	1
0	8201	179.933675072657	1
0	8207	180.056010844366	1
0	8219	180.268049907277	1
0	8231	180.502626974672	1
0	8243	180.925494790238	1
0	8249	181.033109407986	1
0	8252	181.033777611556	1
0	8269	181.379874629042	1
0	8283	181.897364149931	1
0	8297	182.514007120656	1
0	8311	183.118396728499	1
0	8314	183.207662374478	1
0	8319	183.241330844156	1
0	8321	183.248889452572	1
0	8323	183.262483276598	1
0	8335	183.470163951096	1
0	8343	183.54649902582	1
0	8349	183.640391032252	1
0	8357	183.816554249629	1
0	8363	183.837756725218	1
0	8371	183.986279405386	1
0	8377	184.059194434713	1
0	8385	184.173423754494	1
0	8391	184.241749276332	1
0	8413	184.729377906687	1
0	8423	185.059395216011	1
0	8431	185.228178372798	1
0	8436	185.283985424775	1
0	8453	185.828020353006	1
0	8456	185.838500905147	1
0	8463	186.010178090558	1
0	8471	186.105370567309	1
0	8477	186.146328224499	1
0	8493	186.676329327515	1
0	8509	187.480682545149	1
0	8512	187.485529750995	1
0	8537	188.786423246885	1
0	8540	188.789034356694	1
0	8547	188.907321539092	1
0	8549	188.93402488179	1
0	8565	189.221483946105	1
0	8572	189.290874881236	1
0	8583	189.493304971086	1
0	8595	189.74551835015	1
0	8598	189.786491664033	1
0	8605	189.901929284717	1
0	8615	190.075049741009	1
0	8620	190.103709617296	1
0	8633	190.316112813481	1
0	8636	190.321897380484	1
0	8645	190.502049948631	1
0	8655	190.64453001605	1
0	8665	190.800478822865	1
0	8670	190.858224375062	1
0	8681	191.037462725026	1
0	8695	191.391418297428	1
0	8705	191.638298634946	1
0	8710	191.714638757333	1
0	8723	192.009426172948	1
0	8737	192.668065398178	1
0	8740	192.686718895186	1
0	8744	192.691790376124	1
0	8763	193.181302128876	1
0	8766	193.241933352898	1
0	8773	193.36136443694	1
0	8785	193.560668983657	1
0	8797	193.799223547526	1
0	8805	193.915545937696	1
0	8810	194.013632613834	1
0	8821	194.138072480532	1
0	8824	194.148553821056	1
0	8831	194.288798541316	1
0	8845	194.506713940691	1
0	8857	194.833376719767	1
0	8862	194.924410936842	1
0	8867	194.954403265803	1
0	8875	195.11534417499	1
0	8881	195.196269191015	1
0	8887	195.258279224205	1
0	8901	195.504123733913	1
0	8906	195.549723820336	1
0	8911	195.633229722432	1
0	8915	195.703483341086	1
0	8935	196.21643631307	1
0	8947	196.5853008768	1
0	8961	197.098707231231	1
0	8973	197.614151600292	1
0	8983	197.832258050524	1
0	8999	198.600977545639	1
0	9011	198.909148110478	1
0	9017	199.016148192726	1
0	9027	199.116846043677	1
0	9039	199.413571538138	1
0	9049	199.63472138328	1
0	9052	199.671518720977	1
0	9054	199.677397269544	1
0	9071	199.950112850778	1
1	2	0.114538397925	1
1	5	0.15547197478	1
1	7	0.160725622149	2
1	25	0.69702927424	1
1	33	0.85658085902	1
1	49	1.446849733555	1
1	55	1.56114979718	1
1	64	1.693770058208	1
1	72	1.802842361652	1
1	77	1.880132695456	1
1	84	1.960328180121	1
1	86	1.993876258359	2
1	92	2.039670517305	2
1	106	2.27970830462	1
1	118	2.472841777648	1
1	121	2.498397212233	1
1	125	2.569633561714	2
1	136	2.702419565487	1
1	138	2.764494358611	2
1	150	2.964830169755	1
1	162	3.158944621383	1
1	176	3.499943640207	1
1	184	3.650583421909	1
1	196	3.880370524256	1
1	199	3.90927857908	1
1	206	4.047333308752	1
1	216	4.191469101016	1
1	226	4.368232347101	1
1	231	4.409008370493	1
1	244	4.663426033318	1
1	256	4.971161491871	1
1	259	5.03097699788	1
1	274	5.415772884114	1
1	282	5.573795849995	1
1	292	5.710133206656	1
1	300	5.814749231701	1
1	314	6.189640309045	1
1	317	6.228596388112	1
1	319	6.245195653213	2
1	342	6.944071509278	1
1	350	7.084810467119	1
1	355	7.155295367916	1
1	357	7.168798411447	2
1	362	7.236697040012	2
1	370	7.348463075238	2
1	372	7.373166461457	3
1	378	7.393469140195	3
1	380	7.433581000757	4
1	384	7.460781597482	5
1	394	7.597139885006	4
1	402	7.778777270334	4
1	414	7.945611213717	3
1	420	7.996850996407	3
1	422	8.047014378372	4
1	426	8.06963595367	5
1	442	8.36140137449	3
1	448	8.411172176191	3
1	456	8.58339450889	3
1	464	8.669497648598	3
1	470	8.706239748247	3
1	476	8.83238222931	3
1	484	8.923988187905	3
1	486	8.969053180419	4
1	498	9.095528925266	3
1	510	9.30008526162	2
1	522	9.512502484105	1
1	528	9.644471981036	1
1	544	9.959566005198	1
1	552	10.100301174566	1
1	564	10.317872321556	1
1	567	10.415715368928	1
1	578	10.605596832298	1
1	592	10.921220975991	1
1	610	11.860064909484	1
1	616	12.033567014881	1
1	621	12.059016632358	1
1	625	12.094435346442	2
1	627	12.126601718384	3
1	642	12.367898471559	1
1	658	12.750387208039	1
1	672	13.418319719661	1
1	680	13.560796272331	1
1	690	13.699429054061	1
1	693	13.748422527581	1
1	710	14.189006788557	1
1	728	15.189132650318	1
1	733	15.272725324637	1
1	738	15.348479487453	1
1	750	15.515949580353	1
1	753	15.575828505441	1
1	762	15.687393072177	1
1	776	16.018673071187	1
1	784	16.133478438999	1
1	789	16.22076911568	1
1	804	16.520490860361	1
1	810	16.64665401336	1
1	820	16.800057617898	1
1	827	16.864146404648	1
1	844	17.478851537593	1
1	854	17.798947557242	1
1	862	17.956091368242	1
1	876	18.292641980079	1
1	879	18.309774238733	1
1	896	18.901424635715	1
1	899	18.992673941087	1
1	914	19.338864736977	1
1	926	19.719425963769	1
1	934	19.86420461942	1
1	942	19.968472441597	1
1	945	20.018420814404	1
1	947	20.023936654421	2
1	966	20.298518651389	1
1	969	20.355303742053	1
1	978	20.46826782324	1
1	980	20.48216878838	2
1	1000	20.920563211166	1
1	1018	21.93888924218	1
1	1032	22.505589148907	1
1	1046	23.210807401393	1
1	1054	23.350645381586	1
1	1068	23.672791481638	1
1	1078	23.914952054823	1
1	1086	24.099120830404	1
1	1098	24.344324981885	1
1	1108	24.633924778554	1
1	1116	24.765103441377	1
1	1119	24.80218280446	1
1	1140	25.447532803154	1
1	1143	25.516884297978	1
1	1148	25.627917323808	1
1	1160	25.776412910837	1
1	1167	25.854392556584	1
1	1172	25.942597837071	1
1	1186	26.229635942306	1
1	1189	26.23898697221	1
1	1206	26.778493792566	1
1	1222	27.595215574836	1
1	1232	27.843631689264	1
1	1240	27.960079873881	1
1	1250	28.105806047531	1