version 3
run BaseVersion-4-20240511-20:45:07-11874
attr configname BaseVersion
attr datetime 20240511-20:45:07
attr datetimef 20240511-204507
attr experiment BaseVersion
attr inifile omnetpp.ini
attr iterationvars $genInterval=0.3
attr iterationvarsd genInterval=0.3
attr iterationvarsf genInterval=0.3-
attr measurement $genInterval=0.3
attr network Network
attr processid 11874
attr repetition 0
attr replication #0
attr resultdir results
attr runnumber 4
attr seedset 4
itervar genInterval 0.3
config network Network
config sim-time-limit 200s
config Network.nodeTx.gen.generationInterval exponential(0.3)
config Network.nodeTx.gen.packetByteSize 12500
config Network.nodeTx.queue.bufferSize 200
config Network.nodeRx.queue.bufferSize 200
config Network.queue.bufferSize 200

vector 0 Network.nodeTx.gen packetGen ETV
vector 1 Network.nodeTx.queue bufferSize ETV
vector 2 Network.queue bufferSize ETV
vector 3 Network.nodeRx.queue bufferSize ETV
vector 4 Network.nodeRx.sink Delay ETV
vector 5 Network.nodeRx.sink packetUsed ETV
0	1	1.023645695755	1
0	12	1.716291404947	1
0	21	1.954004200535	1
0	24	2.010878873098	1
0	42	3.090967559374	1
0	53	3.671561492565	1
0	62	4.04794769467	1
0	73	4.329689324744	1
0	84	4.688618544298	1
0	95	4.961678494307	1
0	98	5.034716621522	1
0	103	5.080474681701	1
0	124	6.20283556729	1
0	127	6.279112048942	1
0	129	6.28098697275	1
0	147	6.640603198289	1
0	150	6.728103142595	1
0	169	7.428569084729	1
0	175	7.599737277222	1
0	188	7.900425144134	1
0	201	8.353823177207	1
0	204	8.35537492848	1
0	206	8.421451149347	1
0	220	8.67629075593	1
0	236	9.272608248886	1
0	244	9.407196610953	1
0	259	10.636714555671	1
0	268	10.914716844937	1
0	271	10.968398238985	1
0	283	11.117557016163	1
0	295	11.390451326963	1
0	307	11.891761955989	1
0	310	11.894469969879	1
0	322	12.178901420116	1
0	332	12.325508783341	1
0	337	12.418476365327	1
0	342	12.432025805336	1
0	358	12.741800928387	1
0	374	13.683356031649	1
0	385	14.183257105652	1
0	391	14.355145428615	1
0	394	14.360907840633	1
0	414	15.253553275676	1
0	417	15.265731245021	1
0	431	15.728694281047	1
0	444	16.598841881528	1
0	455	17.202464905511	1
0	461	17.379831240579	1
0	467	17.436876429218	1
0	478	17.611545277627	1
0	481	17.634917065966	1
0	483	17.655307436794	1
0	500	17.930752219452	1
0	503	17.988777127193	1
0	512	18.043943948924	1
0	530	18.646656218649	1
0	542	19.043235661364	1
0	554	19.599699348536	1
0	562	19.757198953536	1
0	577	20.534892365844	1
0	586	20.760067308708	1
0	599	21.372841642992	1
0	610	22.20496206433	1
0	621	22.745972110017	1
0	630	22.967224817693	1
0	633	23.057950690631	1
0	638	23.092302481932	1
0	640	23.103226434054	1
0	644	23.154898622937	1
0	651	23.232826362542	1
0	667	23.469197368243	1
0	669	23.540362715873	1
0	681	23.763318726297	1
0	689	23.82311775586	1
0	703	24.127628251493	1
0	711	24.241618437443	1
0	721	24.395614779182	1
0	726	24.478356088981	1
0	741	24.793135726998	1
0	747	24.934313716128	1
0	757	25.086015395448	1
0	771	25.386458873227	1
0	781	25.679841792708	1
0	784	25.755548827778	1
0	801	26.193085746678	1
0	804	26.23789730319	1
0	809	26.29705742	1
0	821	26.55517020022	1
0	831	26.696447785042	1
0	841	26.826456138385	1
0	853	27.035923992163	1
0	861	27.225116783715	1
0	875	27.573263488772	1
0	881	27.706571913617	1
0	888	27.794352019004	1
0	893	27.820401686107	1
0	905	28.063131337942	1
0	910	28.150602066733	1
0	925	28.444795527734	1
0	928	28.459365315474	1
0	945	29.136939112769	1
0	961	29.932184932583	1
0	969	30.067411673936	1
0	974	30.148223419108	1
0	989	30.452689893039	1
0	1001	30.952341516286	1
0	1006	31.016094011022	1
0	1011	31.056558843428	1
0	1023	31.263182381062	1
0	1026	31.286800025712	1
0	1028	31.347231302948	1
0	1049	31.694346812362	1
0	1065	32.446062267579	1
0	1079	33.327720589736	1
0	1085	33.497316787589	1
0	1094	33.611112823131	1
0	1110	34.143031996128	1
0	1121	34.769933081276	1
0	1127	34.931688423095	1
0	1140	35.291051454822	1
0	1153	35.996167087625	1
0	1159	36.128357903462	1
0	1168	36.284027950368	1
0	1184	36.988855788373	1
0	1190	37.109525417679	1
0	1199	37.251208627256	1
0	1211	37.505895537405	1
0	1225	38.068546673158	1
0	1236	38.628705630261	1
0	1245	39.025353694823	1
0	1258	39.617368979614	1
0	1267	39.977543573471	1
0	1278	40.249214186989	1
0	1289	40.581367735987	1
0	1292	40.607906173818	1
0	1294	40.632913886999	1
0	1310	40.905758034526	1
0	1313	40.919460606661	1
0	1319	41.003952202064	1
0	1324	41.033963970846	1
0	1344	41.429659509036	1
0	1347	41.503211190898	1
0	1364	42.178355015375	1
0	1378	42.67190026325	1
0	1389	42.888817672687	1
0	1392	42.920552663183	1
0	1406	43.198124491454	1
0	1409	43.218047012657	1
0	1411	43.238231394903	1
0	1436	44.102688336438	1
0	1445	44.335695717887	1
0	1448	44.389029106144	1
0	1450	44.43052743742	1
0	1466	44.699380975664	1
0	1480	44.985394109411	1
0	1494	45.886249333956	1
0	1500	46.021851464566	1
0	1509	46.158927779804	1
0	1523	46.596920437222	1
0	1526	46.603477178191	1
0	1528	46.618402620038	1
0	1540	46.839015169838	1
0	1542	46.873914012885	1
0	1548	46.983937082416	1
0	1568	47.329563042594	1
0	1582	47.866758459719	1
0	1592	48.08362624318	1
0	1606	48.878710386484	1
0	1615	49.133048744802	1
0	1618	49.174460463182	1
0	1634	49.731267288676	1
0	1647	50.264864767356	1
0	1656	50.465540273782	1
0	1669	50.929131727358	1
0	1680	51.427579211762	1
0	1689	51.778589893782	1
0	1700	51.992744059485	1
0	1711	52.308069028895	1
0	1724	53.09211210881	1
0	1735	53.922889496079	1
0	1744	54.252708267775	1
0	1749	54.333524075402	1
0	1754	54.381830740196	1
0	1765	54.578852140021	1
0	1775	54.71488019785	1
0	1793	55.501752887563	1
0	1804	56.104224039868	1
0	1807	56.162812517704	1
0	1812	56.292179058716	1
0	1819	56.342005440818	1
0	1825	56.404861135141	1
0	1847	57.434478408183	1
0	1853	57.626429332756	1
0	1862	57.74239980895	1
0	1872	57.892059622452	1
0	1888	58.542993180275	1
0	1897	58.832424777985	1
0	1908	59.068910753767	1
0	1916	59.241128940033	1
0	1925	59.380266794676	1
0	1932	59.470972403346	1
0	1937	59.515148793396	1
0	1945	59.674698314473	1
0	1951	59.710505835518	1
0	1959	59.873424769539	1
0	1965	59.895933417085	1
0	1983	60.594063949398	1
0	1986	60.658482322332	1
0	2007	61.826387695608	1
0	2010	61.827266961517	1
0	2020	62.120372987605	1
0	2036	62.748539462135	1
0	2039	62.774594044841	1
0	2055	63.604621397629	1
0	2064	64.00077194105	1
0	2075	64.210309161176	1
0	2086	64.550909535556	1
0	2099	64.963806582545	1
0	2110	65.488456010343	1
0	2119	65.689385472772	1
0	2125	65.817446342031	1
0	2128	65.818624923235	1
0	2130	65.836830339385	1
0	2144	66.022983070539	1
0	2158	66.306870315231	1
0	2163	66.354028722261	1
0	2165	66.393750485954	1
0	2172	66.504545945282	1
0	2192	66.93209333935	1
0	2204	67.351861122423	1
0	2216	67.826441968898	1
0	2228	68.248831485962	1
0	2236	68.406423873827	1
0	2251	69.154953913269	1
0	2262	70.0185921529	1
0	2273	70.823697587265	1
0	2276	70.88096577194	1
0	2278	70.909305701112	1
0	2300	71.766545076903	1
0	2303	71.83173255546	1
0	2313	72.019653825883	1
0	2325	72.2669508915	1
0	2337	72.698851392687	1
0	2340	72.701995815841	1
0	2356	73.121287597491	1
0	2359	73.199656860594	1
0	2377	74.391984797667	1
0	2380	74.403252232204	1
0	2396	75.489932628514	1
0	2399	75.51637957429	1
0	2401	75.528654649488	1
0	2415	75.854336018263	1
0	2418	75.859166075646	1
0	2433	76.121958077789	1
0	2445	76.35707028276	1
0	2457	76.746404842379	1
0	2460	76.756744271141	1
0	2477	77.460945655309	1
0	2488	77.782377285447	1
0	2491	77.787434979062	1
0	2503	78.01708750947	1
0	2519	78.69809922698	1
0	2528	79.027585487752	1
0	2539	79.237879410175	1
0	2545	79.412544054045	1
0	2560	79.698756981269	1
0	2563	79.794187596909	1
0	2568	79.837607126244	1
0	2589	80.73434701722	1
0	2595	80.925926570284	1
0	2608	81.316809853355	1
0	2619	81.61881359917	1
0	2622	81.62071680545	1
0	2634	81.823773570201	1
0	2637	81.855157728792	1
0	2658	82.659058952932	1
0	2667	82.958709871201	1
0	2680	83.782874289553	1
0	2686	83.884793017906	1
0	2697	84.092714045478	1
0	2705	84.249796981868	1
0	2715	84.407901517202	1
0	2729	84.864235031358	1
0	2742	85.363779075257	1
0	2748	85.494933401577	1
0	2759	85.71249302484	1
0	2773	86.492825119106	1
0	2782	86.69464568053	1
0	2793	87.077020189893	1
0	2806	87.689992747755	1
0	2815	87.930832104097	1
0	2828	88.615936899713	1
0	2831	88.675825378595	1
0	2836	88.720786962419	1
0	2843	88.878869088713	1
0	2859	89.271174590998	1
0	2871	89.702933537109	1
0	2882	89.952893895638	1
0	2895	91.35935565862	1
0	2906	92.024244134863	1
0	2909	92.047195848117	1
0	2914	92.161256355527	1
0	2916	92.204678297956	1
0	2937	92.625229191967	1
0	2949	93.029402908266	1
0	2952	93.127634274095	1
0	2970	93.665969671763	1
0	2973	93.704175406979	1
0	2975	93.732064331891	1
0	2980	93.809299834749	1
0	3001	94.339861491799	1
0	3013	94.785989914185	1
0	3026	95.249552056338	1
0	3037	95.714420103591	1
0	3046	96.064058566697	1
0	3057	96.379627349787	1
0	3065	96.504248539708	1
0	3074	96.614446529617	1
0	3084	96.79083449056	1
0	3100	98.576968138171	1
0	3106	98.713839133544	1
0	3115	98.818550059033	1
0	3129	99.369199646326	1
0	3140	99.700087188733	1
0	3148	99.819480118099	1
0	3154	99.911543870821	1
0	3163	100.028380792043	1
0	3173	100.193025212778	1
0	3191	101.014381039424	1
0	3202	101.64324238605	1
0	3213	102.400913547353	1
0	3222	102.673378984048	1
0	3235	103.712372285997	1
0	3238	103.811137124023	1
0	3252	104.305511155138	1
0	3265	104.720491256975	1
0	3268	104.747769349192	1
0	3282	105.138056202667	1
0	3285	105.166649736948	1
0	3299	105.517796923322	1
0	3311	105.762108161106	1
0	3319	105.942344580394	1
0	3334	106.524110269721	1
0	3340	106.72283987711	1
0	3355	107.369601554575	1
0	3361	107.525467415348	1
0	3374	107.829348107142	1
0	3387	108.740129572909	1
0	3398	109.675869915776	1
0	3401	109.680856211167	1
0	3403	109.730278136084	1
0	3408	109.843064573605	1
0	3415	109.918211646214	1
0	3441	111.3032909714	1
0	3447	111.424553564594	1
0	3462	112.070912732275	1
0	3465	112.159951746687	1
0	3467	112.165994914432	1
0	3477	112.278274264464	1
0	3479	112.310815615908	1
0	3481	112.348636158362	1
0	3487	112.378277654268	1
0	3495	112.519442057125	1
0	3501	112.612133106929	1
0	3503	112.621200979813	1
0	3511	112.68625538564	1
0	3523	112.917770762463	1
0	3529	113.068100849583	1
0	3559	113.942779820341	1
0	3571	114.410193031635	1
0	3579	114.586896864311	1
0	3584	114.614567823476	1
0	3599	114.908139957171	1
0	3605	115.050509771266	1
0	3619	115.334389700004	1
0	3627	115.483500076632	1
0	3645	116.2961214667	1
0	3651	116.404140248285	1
0	3666	116.802003912012	1
0	3674	116.991073920804	1
0	3689	117.513657882398	1
0	3700	118.915811900295	1
0	3706	119.038585808334	1
0	3719	119.451190286684	1
0	3732	120.165239647237	1
0	3735	120.191528697488	1
0	3737	120.252975876011	1
0	3751	120.539611681624	1
0	3761	120.696877289719	1
0	3766	120.762037348417	1
0	3781	121.163233728937	1
0	3789	121.307048417626	1
0	3799	121.428743326091	1
0	3817	122.312466934819	1
0	3828	122.964287429749	1
0	3831	123.044799562795	1
0	3847	123.636042147415	1
0	3853	123.79218335083	1
0	3859	123.846322856523	1
0	3876	124.915826108034	1
0	3879	124.994526305294	1
0	3881	125.008001198528	1
0	3886	125.024159083097	1
0	3893	125.124903548239	1
0	3913	125.712008815243	1
0	3918	125.806612814725	1
0	3929	125.93091533883	1
0	3939	126.117358571889	1
0	3947	126.267248484059	1
0	3957	126.433155687023	1
0	3964	126.527719146058	1
0	3979	126.950464369854	1
0	3982	126.989916822094	1
0	3987	127.076821429852	1
0	3999	127.259981648447	1
0	4015	127.857075041143	1
0	4020	127.937327934004	1
0	4033	128.203081421921	1
0	4043	128.451533257835	1
0	4055	128.820982581017	1
0	4058	128.888964336695	1
0	4060	128.896683305006	1
0	4071	129.111538834775	1
0	4079	129.155516942748	1
0	4099	130.044356411036	1
0	4110	130.281522126516	1
0	4116	130.421007233443	1
0	4124	130.512086538817	1
0	4141	131.437252989675	1
0	4144	131.498424936643	1
0	4146	131.516097152884	1
0	4151	131.550380934887	1
0	4162	131.789137714461	1
0	4164	131.817626265754	1
0	4182	132.092361640941	1
0	4194	132.317286046927	1
0	4212	133.296395589701	1
0	4215	133.364959792476	1
0	4231	134.142781374676	1
0	4237	134.246739681118	1
0	4248	134.461299930159	1
0	4262	135.239129466968	1
0	4273	135.666622736749	1
0	4276	135.726331318749	1
0	4292	136.844060119602	1
0	4301	137.151023291245	1
0	4312	137.551134171642	1
0	4317	137.582925792703	1
0	4333	138.506372969962	1
0	4339	138.67827425199	1
0	4354	139.516817690024	1
0	4365	139.91762456474	1
0	4371	140.114823755355	1
0	4386	140.643090523344	1
0	4395	140.966640113563	1
0	4403	141.114462322946	1
0	4409	141.173942598317	1
0	4411	141.209535201427	1
0	4422	141.381890405237	1
0	4436	141.621626253542	1
0	4450	142.224879053925	1
0	4463	142.695945048733	1
0	4472	142.954224610078	1
0	4485	144.821393814979	1
0	4488	144.919717454771	1
0	4504	145.461854693236	1
0	4507	145.501157095197	1
0	4517	145.727072357873	1
0	4522	145.806205465054	1
0	4533	145.966045579681	1
0	4536	146.00610244962	1
0	4538	146.025485416565	1
0	4547	146.10537136816	1
0	4553	146.170827273265	1
0	4561	146.315975296745	1
0	4573	146.497422377471	1
0	4575	146.510576136318	1
0	4581	146.639686928055	1
0	4603	147.187053618843	1
0	4606	147.247879472795	1
0	4617	147.403038364918	1
0	4633	148.013782724865	1
0	4645	148.265143734789	1
0	4651	148.395492017634	1
0	4665	148.698782912665	1
0	4668	148.752938107275	1
0	4670	148.795698333929	1
0	4678	148.898800504226	1
0	4683	148.924699205301	1
0	4703	149.335621913469	1
0	4706	149.386691981241	1
0	4727	150.295594080447	1
0	4743	151.581058056503	1
0	4752	151.907171332699	1
0	4755	151.940288355925	1
0	4762	152.056148019496	1
0	4773	152.220943078344	1
0	4785	152.431817407474	1
0	4799	153.055799539925	1
0	4802	153.084315209894	1
0	4814	153.347635067356	1
0	4826	153.647773715864	1
0	4829	153.653080476872	1
0	4842	153.882808849845	1
0	4858	154.541473617863	1
0	4864	154.646103967913	1
0	4873	154.79152838526	1
0	4885	155.047019084661	1
0	4888	155.10209867204	1
0	4899	155.256197108578	1
0	4909	155.379572577957	1
0	4923	155.859558553184	1
0	4933	156.130088668365	1
0	4941	156.261929439721	1
0	4944	156.273472233501	1
0	4953	156.383665144591	1
0	4967	156.692930372097	1
0	4970	156.736047183178	1
0	4985	157.018611599934	1
0	4999	157.678107483257	1
0	5004	157.756047378471	1
0	5014	157.912692139832	1
0	5024	158.079239183875	1
0	5040	158.68019331	1
0	5043	158.744714290866	1
0	5057	159.137753639326	1
0	5060	159.144221822056	1
0	5072	159.416497895762	1
0	5084	159.679561121366	1
0	5098	160.186050899873	1
0	5104	160.362880108304	1
0	5117	160.691197567118	1
0	5130	161.244853230502	1
0	5133	161.292726294684	1
0	5138	161.359315438217	1
0	5153	161.650040391187	1
0	5159	161.824307030503	1
0	5164	161.845745981808	1
0	5179	162.176039583892	1
0	5195	162.864497212654	1
0	5198	162.885731683902	1
0	5212	163.346324190806	1
0	5220	163.478032292761	1
0	5223	163.479196339475	1
0	5239	163.826739707511	1
0	5253	164.640098079875	1
0	5256	164.72443790889	1
0	5261	164.798175899221	1
0	5268	164.933932216553	1
0	5274	165.02626325373	1
0	5290	165.284636235218	1
0	5304	165.924239908031	1
0	5312	166.082242878654	1
0	5327	167.031557410386	1
0	5338	167.659696249736	1
0	5341	167.742433696123	1
0	5357	168.332013254338	1
0	5366	168.534567808897	1
0	5379	169.073256296805	1
0	5390	169.478117893152	1
0	5396	169.644797414343	1
0	5407	169.855756918681	1
0	5412	169.919021380348	1
0	5414	169.929106865062	1
0	5429	170.234656322643	1
0	5436	170.304221951813	1
0	5445	170.471888132603	1
0	5461	171.023645932701	1
0	5471	171.235094717497	1
0	5485	171.796711534051	1
0	5494	172.112560857828	1
0	5507	173.218984281206	1
0	5518	174.062715335689	1
0	5521	174.136549060598	1
0	5535	174.632017478373	1
0	5548	175.641436015408	1
0	5551	175.68088461525	1
0	5561	175.931629843278	1
0	5577	176.645671284931	1
0	5588	177.492116120021	1
0	5597	177.831209552432	1
0	5600	177.862550924134	1
0	5607	177.977996183307	1
0	5626	178.955930408776	1
0	5635	179.348722618477	1
0	5643	179.491784552519	1
0	5652	179.685071041244	1
0	5657	179.721164866587	1
0	5670	179.968163880747	1
0	5673	179.983338715967	1
0	5686	180.237805487818	1
0	5691	180.302920817383	1
0	5698	180.352202574508	1
0	5714	180.92146886906	1
0	5722	181.056285558798	1
0	5734	181.259654337628	1
0	5742	181.431323582428	1
0	5760	182.611566399523	1
0	5763	182.629403866019	1
0	5775	182.952196963712	1
0	5787	183.338112677102	1
0	5792	183.433532182129	1
0	5802	183.552248151111	1
0	5814	183.863318522481	1
0	5822	184.057686281476	1
0	5829	184.140865498696	1
0	5846	185.028152654542	1
0	5855	185.337107583007	1
0	5868	185.94452163223	1
0	5871	185.980011763343	1
0	5876	186.075700095559	1
0	5883	186.206718136298	1
0	5895	186.360101703612	1
0	5907	186.587200680497	1
0	5917	186.841254012169	1
0	5920	186.841661049574	1
0	5922	186.879834493636	1
0	5933	187.112433472059	1
0	5951	187.589595328403	1
0	5957	187.722654261318	1
0	5967	187.840012864411	1
0	5979	188.058836800998	1
0	5982	188.095700269933	1
0	5989	188.167830316319	1
0	6003	188.536309805381	1
0	6019	189.254793894461	1
0	6029	189.471819052694	1
0	6043	190.029629472275	1
0	6046	190.037871789457	1
0	6048	190.122103300495	1
0	6062	190.37030141291	1
0	6080	191.095216732655	1
0	6091	191.528659366026	1
0	6102	192.041871494934	1
0	6105	192.051331904766	1
0	6110	192.190055561907	1
0	6125	192.511577407359	1
0	6133	192.670843223316	1
0	6138	192.757204613136	1
0	6157	194.151909845006	1
0	6163	194.323335458743	1
0	6169	194.36772118358	1
0	6171	194.390192375111	1
0	6176	194.441462135678	1
0	6188	194.66939475633	1
0	6190	194.708581141872	1
0	6214	195.546805320176	1
0	6219	195.57857266293	1
0	6224	195.687646153282	1
0	6240	196.097945889769	1
0	6243	196.117639589632	1
0	6258	196.43959025317	1
0	6272	197.005199719324	1
0	6278	197.204017035654	1
0	6293	198.08863480984	1
0	6299	198.240808343141	1
0	6310	198.44344222277	1
0	6318	198.613003647035	1
0	6334	199.330459625138	1
0	6345	199.938502006517	1
1	2	1.023645695755	1
1	13	1.716291404947	1
1	22	1.954004200535	1
1	25	2.010878873098	1
1	43	3.090967559374	1
1	54	3.671561492565	1
1	63	4.04794769467	1
1	74	4.329689324744	1
1	85	4.688618544298	1
1	96	4.961678494307	1
1	99	5.034716621522	1
1	104	5.080474681701	1
1	125	6.20283556729	1
1	128	6.279112048942	1
1	130	6.28098697275	2
1	148	6.640603198289	1
1	151	6.728103142595	1
1	170	7.428569084729	1
1	176	7.599737277222	1
1	189	7.900425144134	1
1	202	8.353823177207	1
1	205	8.35537492848	1
1	207	8.421451149347	2
1	221	8.67629075593	1
1	237	9.272608248886	1
1	245	9.407196610953	1
1	260	10.636714555671	1
1	269	10.914716844937	1
1	272	10.968398238985	1
1	284	11.117557016163	1
1	296	11.390451326963	1
1	308	11.891761955989	1
1	311	11.894469969879	1
1	323	12.178901420116	1
1	333	12.325508783341	1
1	338	12.418476365327	1
1	343	12.432025805336	1
1	359	12.741800928387	1
1	375	13.683356031649	1
1	386	14.183257105652	1
1	392	14.355145428615	1
1	395	14.360907840633	1
1	415	15.253553275676	1
1	418	15.265731245021	1
1	432	15.728694281047	1
1	445	16.598841881528	1
1	456	17.202464905511	1
1	462	17.379831240579	1
1	468	17.436876429218	1
1	479	17.611545277627	1
1	482	17.634917065966	1
1	484	17.655307436794	2
1	501	17.930752219452	1
1	504	17.988777127193	1
1	513	18.043943948924	1
1	531	18.646656218649	1
1	543	19.043235661364	1
1	555	19.599699348536	1
1	563	19.757198953536	1
1	578	20.534892365844	1
1	587	20.760067308708	1
1	600	21.372841642992	1
1	611	22.20496206433	1
1	622	22.745972110017	1
1	631	22.967224817693	1
1	634	23.057950690631	1
1	639	23.092302481932	1
1	641	23.103226434054	2
1	645	23.154898622937	3
1	652	23.232826362542	3
1	668	23.469197368243	1
1	670	23.540362715873	2
1	682	23.763318726297	1
1	690	23.82311775586	1
1	704	24.127628251493	1
1	712	24.241618437443	1
1	722	24.395614779182	1
1	727	24.478356088981	1
1	742	24.793135726998	1
1	748	24.934313716128	1
1	758	25.086015395448	1
1	772	25.386458873227	1
1	782	25.679841792708	1
1	785	25.755548827778	1
1	802	26.193085746678	1
1	805	26.23789730319	1
1	810	26.29705742	1
1	822	26.55517020022	1
1	832	26.696447785042	1
1	842	26.826456138385	1
1	854	27.035923992163	1
1	862	27.225116783715	1
1	876	27.573263488772	1
1	882	27.706571913617	1
1	889	27.794352019004	1
1	894	27.820401686107	1
1	906	28.063131337942	1
1	911	28.150602066733	1
1	926	28.444795527734	1
1	929	28.459365315474	1
1	946	29.136939112769	1
1	962	29.932184932583	1
1	970	30.067411673936	1
1	975	30.148223419108	1
1	990	30.452689893039	1
1	1002	30.952341516286	1
1	1007	31.016094011022	1
1	1012	31.056558843428	1
1	1024	31.263182381062	1
1	1027	31.286800025712	1
1	1029	31.347231302948	2
1	1050	31.694346812362	1
1	1066	32.446062267579	1
1	1080	33.327720589736	1
1	1086	33.497316787589	1
1	1095	33.611112823131	1
1	1111	34.143031996128	1
1	1122	34.769933081276	1
1	1128	34.931688423095	1
1	1141	35.291051454822	1
1	1154	35.996167087625	1
1	1160	36.128357903462	1
1	1169	36.284027950368	1
1	1185	36.988855788373	1
1	1191	37.109525417679	1
1	1200	37.251208627256	1
1	1212	37.505895537405	1
1	1226	38.068546673158	1
1	1237	38.628705630261	1
1	1246	39.025353694823	1
1	1259	39.617368979614	1
1	1268	39.977543573471	1
1	1279	40.249214186989	1
1	1290	40.581367735987	1
1	1293	40.607906173818	1
1	1295	40.632913886999	2
1	1311	40.905758034526	1
1	1314	40.919460606661	1
1	1320	41.003952202064	2
1	1325	41.033963970846	2
1	1345	41.429659509036	1
1	1348	41.503211190898	1
1	1365	42.178355015375	1
1	1379	42.67190026325	1
1	1390	42.888817672687	1
1	1393	42.920552663183	1
1	1407	43.198124491454	1
1	1410	43.218047012657	1
1	1412	43.238231394903	2
1	1437	44.102688336438	1
1	1446	44.335695717887	1
1	1449	44.389029106144	1
1	1451	44.43052743742	2
1	1467	44.699380975664	1
1	1481	44.985394109411	1
1	1495	45.886249333956	1
1	1501	46.021851464566	1
1	1510	46.158927779804	1
1	1524	46.596920437222	1
1	1527	46.603477178191	1
1	1529	46.618402620038	2
1	1541	46.839015169838	1
1	1543	46.873914012885	2
1	1549	46.983937082416	2
1	1569	47.329563042594	1
1	1583	47.866758459719	1
1	1593	48.08362624318	1
1	1607	48.878710386484	1
1	1616	49.133048744802	1
1	1619	49.174460463182	1
1	1635	49.731267288676	1
1	1648	50.264864767356	1
1	1657	50.465540273782	1
1	1670	50.929131727358	1
1	1681	51.427579211762	1
1	1690	51.778589893782	1
1	1701	51.992744059485	1
1	1712	52.308069028895	1
1	1725	53.09211210881	1
1	1736	53.922889496079	1
1	1745	54.252708267775	1
1	1750	54.333524075402	1
1	1755	54.381830740196	1
1	1766	54.578852140021	1
1	1776	54.71488019785	1
1	1794	55.501752887563	1
1	1805	56.104224039868	1
1	1808	56.162812517704	1
1	1813	56.292179058716	1
1	1820	56.342005440818	1
1	1826	56.404861135141	1
1	1848	57.434478408183	1
1	1854	57.626429332756	1
1	1863	57.74239980895	1
1	1873	57.892059622452	1
1	1889	58.542993180275	1
1	1898	58.832424777985	1
1	1909	59.068910753767	1
1	1917	59.241128940033	1
1	1926	59.380266794676	1
1	1933	59.470972403346	1
1	1938	59.515148793396	1
1	1946	59.674698314473	1
1	1952	59.710505835518	1
1	1960	59.873424769539	1
1	1966	59.895933417085	1
1	1984	60.594063949398	1
1	1987	60.658482322332	1
1	2008	61.826387695608	1
1	2011	61.827266961517	1
1	2021	62.120372987605	1
1	2037	62.748539462135	1
1	2040	62.774594044841	1
1	2056	63.604621397629	1
1	2065	64.00077194105	1
1	2076	64.210309161176	1
1	2087	64.550909535556	1
1	2100	64.963806582545	1
1	2111	65.488456010343	1
1	2120	65.689385472772	1
1	2126	65.817446342031	1
1	2129	65.818624923235	1
1	2131	65.836830339385	2
1	2145	66.022983070539	1
1	2159	66.306870315231	1
1	2164	66.354028722261	1
1	2166	66.393750485954	2
1	2173	66.504545945282	2
1	2193	66.93209333935	1
1	2205	67.351861122423	1
1	2217	67.826441968898	1
1	2229	68.248831485962	1
1	2237	68.406423873827	1
1	2252	69.154953913269	1
1	2263	70.0185921529	1
1	2274	70.823697587265	1
1	2277	70.88096577194	1
1	2279	70.909305701112	2
1	2301	71.766545076903	1
1	2304	71.83173255546	1
1	2314	72.019653825883	1
1	2326	72.2669508915	1
1	2338	72.698851392687	1
1	2341	72.701995815841	1
1	2357	73.121287597491	1
1	2360	73.199656860594	1
1	2378	74.391984797667	1
1	2381	74.403252232204	1
1	2397	75.489932628514	1
1	2400	75.51637957429	1
1	2402	75.528654649488	2
1	2416	75.854336018263	1
1	2419	75.859166075646	1
1	2434	76.121958077789	1
1	2446	76.35707028276	1
1	2458	76.746404842379	1
1	2461	76.756744271141	1
1	2478	77.460945655309	1
1	2489	77.782377285447	1
1	2492	77.787434979062	1
1	2504	78.01708750947	1
1	2520	78.69809922698	1
1	2529	79.027585487752	1
1	2540	79.237879410175	1
1	2546	79.412544054045	1
1	2561	79.698756981269	1
1	2564	79.794187596909	1
1	2569	79.837607126244	1
1	2590	80.73434701722	1
1	2596	80.925926570284	1
1	2609	81.316809853355	1
1	2620	81.61881359917	1
1	2623	81.62071680545	1
1	2635	81.823773570201	1
1	2638	81.855157728792	1
1	2659	82.659058952932	1
1	2668	82.958709871201	1
1	2681	83.782874289553	1
1	2687	83.884793017906	1
1	2698	84.092714045478	1
1	2706	84.249796981868	1
1	2716	84.407901517202	1
1	2730	84.864235031358	1
1	2743	85.363779075257	1
1	2749	85.494933401577	1
1	2760	85.71249302484	1
1	2774	86.492825119106	1
1	2783	86.69464568053	1
1	2794	87.077020189893	1
1	2807	87.689992747755	1
1	2816	87.930832104097	1
1	2829	88.615936899713	1
1	2832	88.675825378595	1
1	2837	88.720786962419	1
1	2844	88.878869088713	1
1	2860	89.271174590998	1
1	2872	89.702933537109	1
1	2883	89.952893895638	1
1	2896	91.35935565862	1
1	2907	92.024244134863	1
1	2910	92.047195848117	1
1	2915	92.161256355527	1
1	2917	92.204678297956	2
1	2938	92.625229191967	1
1	2950	93.029402908266	1
1	2953	93.127634274095	1
1	2971	93.665969671763	1
1	2974	93.704175406979	1
1	2976	93.732064331891	2
1	2981	93.809299834749	2
1	3002	94.339861491799	1
1	3014	94.785989914185	1
1	3027	95.249552056338	1
1	3038	95.714420103591	1
1	3047	96.064058566697	1
1	3058	96.379627349787	1
1	3066	96.504248539708	1
1	3075	96.614446529617	1
1	3085	96.79083449056	1
1	3101	98.576968138171	1
1	3107	98.713839133544	1
1	3116	98.818550059033	1
1	3130	99.369199646326	1
1	3141	99.700087188733	1
1	3149	99.819480118099	1
1	3155	99.911543870821	1
1	3164	100.028380792043	1
1	3174	100.193025212778	1
1	3192	101.014381039424	1
1	3203	101.64324238605	1
1	3214	102.400913547353	1
1	3223	102.673378984048	1
1	3236	103.712372285997	1
1	3239	103.811137124023	1
1	3253	104.305511155138	1
1	3266	104.720491256975	1
1	3269	104.747769349192	1
1	3283	105.138056202667	1
1	3286	105.166649736948	1
1	3300	105.517796923322	1
1	3312	105.762108161106	1
1	3320	105.942344580394	1
1	3335	106.524110269721	1
1	3341	106.72283987711	1
1	3356	107.369601554575	1
1	3362	107.525467415348	1
1	3375	107.829348107142	1
1	3388	108.740129572909	1
1	3399	109.675869915776	1
1	3402	109.680856211167	1
1	3404	109.730278136084	2
1	3409	109.843064573605	2
1	3416	109.918211646214	2
1	3442	111.3032909714	1
1	3448	111.424553564594	1
1	3463	112.070912732275	1
1	3466	112.159951746687	1
1	3468	112.165994914432	2
1	3478	112.278274264464	1
1	3480	112.310815615908	2
1	3482	112.348636158362	3
1	3488	112.378277654268	3
1	3496	112.519442057125	3
1	3502	112.612133106929	3
1	3504	112.621200979813	4
1	3512	112.68625538564	4
1	3524	112.917770762463	3
1	3530	113.068100849583	3
1	3560	113.942779820341	1
1	3572	114.410193031635	1
1	3580	114.586896864311	1
1	3585	114.614567823476	1
1	3600	114.908139957171	1
1	3606	115.050509771266	1
1	3620	115.334389700004	1
1	3628	115.483500076632	1
1	3646	116.2961214667	1
1	3652	116.404140248285	1
1	3667	116.802003912012	1
1	3675	116.991073920804	1
1	3690	117.513657882398	1
1	3701	118.915811900295	1
1	3707	119.038585808334	1
1	3720	119.451190286684	1
1	3733	120.165239647237	1
1	3736	120.191528697488	1
1	3738	120.252975876011	2
1	3752	120.539611681624	1
1	3762	120.696877289719	1
1	3767	120.762037348417	1
1	3782	121.163233728937	1
1	3790	121.307048417626	1
1	3800	121.428743326091	1
1	3818	122.312466934819	1
1	3829	122.964287429749	1
1	3832	123.044799562795	1
1	3848	123.636042147415	1
1	3854	123.79218335083	1
1	3860	123.846322856523	1
1	3877	124.915826108034	1
1	3880	124.994526305294	1
1	3882	125.008001198528	2
1	3887	125.024159083097	2
1	3894	125.124903548239	2
1	3914	125.712008815243	1
1	3919	125.806612814725	1
1	3930	125.93091533883	1
1	3940	126.117358571889	1
1	3948	126.267248484059	1
1	3958	126.433155687023	1
1	3965	126.527719146058	1
1	3980	126.950464369854	1
1	3983	126.989916822094	1
1	3988	127.076821429852	1
1	4000	127.259981648447	1
1	4016	127.857075041143	1
1	4021	127.937327934004	1
1	4034	128.203081421921	1
1	4044	128.451533257835	1
1	4056	128.820982581017	1
1	4059	128.888964336695	1
1	4061	128.896683305006	2
1	4072	129.111538834775	1
1	4080	129.155516942748	1
1	4100	130.044356411036	1
1	4111	130.281522126516	1
1	4117	130.421007233443	1
1	4125	130.512086538817	1
1	4142	131.437252989675	1
1	4145	131.498424936643	1
1	4147	131.516097152884	2
1	4152	131.550380934887	2
1	4163	131.789137714461	1
1	4165	131.817626265754	2
1	4183	132.092361640941	1
1	4195	132.317286046927	1
1	4213	133.296395589701	1
1	4216	133.364959792476	1
1	4232	134.142781374676	1
1	4238	134.246739681118	1
1	4249	134.461299930159	1
1	4263	135.239129466968	1
1	4274	135.666622736749	1
1	4277	135.726331318749	1
1	4293	136.844060119602	1
1	4302	137.151023291245	1
1	4313	137.551134171642	1
1	4318	137.582925792703	1
1	4334	138.506372969962	1
1	4340	138.67827425199	1
1	4355	139.516817690024	1
1	4366	139.91762456474	1
1	4372	140.114823755355	1
1	4387	140.643090523344	1
1	4396	140.966640113563	1
1	4404	141.114462322946	1
1	4410	141.173942598317	1
1	4412	141.209535201427	2
1	4423	141.381890405237	1
1	4437	141.621626253542	1
1	4451	142.224879053925	1
1	4464	142.695945048733	1
1	4473	142.954224610078	1
1	4486	144.821393814979	1
1	4489	144.919717454771	1
1	4505	145.461854693236	1
1	4508	145.501157095197	1
1	4518	145.727072357873	1
1	4523	145.806205465054	1
1	4534	145.966045579681	1
1	4537	146.00610244962	1
1	4539	146.025485416565	2
1	4548	146.10537136816	2
1	4554	146.170827273265	2
1	4562	146.315975296745	2
1	4574	146.497422377471	1
1	4576	146.510576136318	2
1	4582	146.639686928055	2
1	4604	147.187053618843	1
1	4607	147.247879472795	1
1	4618	147.403038364918	1
1	4634	148.013782724865	1
1	4646	148.265143734789	1
1	4652	148.395492017634	1
1	4666	148.698782912665	1
1	4669	148.752938107275	1
1	4671	148.795698333929	2
1	4679	148.898800504226	1
1	4684	148.924699205301	2
1	4704	149.335621913469	1
1	4707	149.386691981241	1
1	4728	150.295594080447	1
1	4744	151.581058056503	1
1	4753	151.907171332699	1