version 3
run BaseVersion-14-20240511-20:45:07-11874
attr configname BaseVersion
attr datetime 20240511-20:45:07
attr datetimef 20240511-204507
attr experiment BaseVersion
attr inifile omnetpp.ini
attr iterationvars $genInterval=0.8
attr iterationvarsd genInterval=0.8
attr iterationvarsf genInterval=0.8-
attr measurement $genInterval=0.8
attr network Network
attr processid 11874
attr repetition 0
attr replication #0
attr resultdir results
attr runnumber 14
attr seedset 14
itervar genInterval 0.8
config network Network
config sim-time-limit 200s
config Network.nodeTx.gen.generationInterval exponential(0.8)
config Network.nodeTx.gen.packetByteSize 12500
config Network.nodeTx.queue.bufferSize 200
config Network.nodeRx.queue.bufferSize 200
config Network.queue.bufferSize 200

vector 0 Network.nodeTx.gen packetGen ETV
vector 1 Network.nodeTx.queue bufferSize ETV
vector 2 Network.queue bufferSize ETV
vector 3 Network.nodeRx.queue bufferSize ETV
vector 4 Network.nodeRx.sink Delay ETV
vector 5 Network.nodeRx.sink packetUsed ETV
0	1	0.577144061132	1
0	12	2.616889028598	1
0	23	3.803715123244	1
0	34	4.664612548188	1
0	45	6.299425455245	1
0	54	6.664346937282	1
0	57	6.670810537485	1
0	64	6.799889861502	1
0	79	7.096434697679	1
0	87	7.276236325065	1
0	103	9.80479245473	1
0	112	10.00560934713	1
0	125	10.581394018442	1
0	134	10.889248463287	1
0	145	11.195762669922	1
0	156	11.557958715697	1
0	169	12.177791545066	1
0	180	12.797299317998	1
0	186	12.997356559827	1
0	202	13.912473800344	1
0	213	15.226378949746	1
0	224	15.838867776699	1
0	233	16.174017691392	1
0	244	16.401494246992	1
0	257	17.020787163927	1
0	268	19.733636015003	1
0	271	19.738348901481	1
0	276	19.869703784384	1
0	295	20.764312992011	1
0	301	20.962015813681	1
0	310	21.150618253607	1
0	324	21.429704513629	1
0	337	23.58688952648	1
0	346	23.925788345056	1
0	357	24.300825104053	1
0	370	28.099600402228	1
0	381	29.216414138528	1
0	390	29.421965482337	1
0	403	30.574190920471	1
0	414	33.554419097611	1
0	425	35.189675284464	1
0	428	35.284532702401	1
0	433	35.377859699559	1
0	444	35.529824122839	1
0	458	35.815269204393	1
0	472	37.100719132249	1
0	483	37.616061164059	1
0	494	39.636360599476	1
0	505	40.530441891067	1
0	516	41.141835484196	1
0	525	41.380121012559	1
0	528	41.461390880138	1
0	546	42.427645220433	1
0	552	42.527753299401	1
0	567	43.383773308505	1
0	576	43.630166692764	1
0	584	43.790888634848	1
0	599	44.804887233042	1
0	608	45.11584795785	1
0	616	45.26529939022	1
0	631	47.013407405242	1
0	642	50.264217389096	1
0	645	50.33384030696	1
0	647	50.355576502881	1
0	669	51.453692058457	1
0	672	51.462997672772	1
0	674	51.514500540862	1
0	696	53.488948803025	1
0	707	54.540816052759	1
0	718	56.26051530978	1
0	729	57.345939037042	1
0	732	57.413893044821	1
0	746	57.833178203118	1
0	759	58.78774646114	1
0	770	62.590960702332	1
0	781	63.527857168255	1
0	792	64.00924161958	1
0	803	67.288336965082	1
0	809	67.456793837596	1
0	824	68.307188404267	1
0	833	68.653819058801	1
0	841	68.822232474303	1
0	856	69.825916871506	1
0	867	71.177967966825	1
0	876	71.531798263843	1
0	887	71.891967452521	1
0	892	71.934366248532	1
0	894	71.966910871281	1
0	908	72.270654029357	1
0	926	76.716937085434	1
0	937	82.100363775638	1
0	948	83.0123469835	1
0	957	83.283981977174	1
0	970	84.347434492627	1
0	981	84.843048381348	1
0	992	85.708947339819	1
0	1003	86.772177499038	1
0	1012	87.089129004996	1
0	1025	89.390478487272	1
0	1036	90.439327345143	1
0	1042	90.593615397325	1
0	1051	90.75605792425	1
0	1061	90.947091584308	1
0	1075	91.428777308256	1
0	1083	91.542468479265	1
0	1092	91.742354010086	1
0	1102	91.929597490519	1
0	1118	92.483776007459	1
0	1129	96.840847618219	1
0	1140	97.841203194925	1
0	1149	98.067779050442	1
0	1155	98.22713670646	1
0	1163	98.320411539925	1
0	1180	100.228979201257	1
0	1191	100.787217977209	1
0	1194	100.87896119722	1
0	1208	101.366185181859	1
0	1221	102.415180869225	1
0	1232	103.476063778047	1
0	1243	104.642523286575	1
0	1254	105.418579387636	1
0	1263	105.742015812834	1
0	1276	106.518339313506	1
0	1287	107.642289182381	1
0	1293	107.772466820711	1
0	1308	108.946701808543	1
0	1319	109.564929665577	1
0	1330	110.30265617962	1
0	1336	110.405238616095	1
0	1351	111.128734715754	1
0	1357	111.26160248707	1
0	1372	113.040073134703	1
0	1383	113.518602503972	1
0	1386	113.59396086527	1
0	1400	114.042355086696	1
0	1413	114.755071085888	1
0	1424	115.813462595861	1
0	1435	116.566462663529	1
0	1438	116.62759743479	1
0	1450	116.906895976732	1
0	1462	117.168351283999	1
0	1475	118.053772039817	1
0	1481	118.198312393979	1
0	1496	119.873514170023	1
0	1507	120.441078750765	1
0	1518	121.11241214687	1
0	1529	121.804987493529	1
0	1540	122.624249036516	1
0	1551	123.438482507038	1
0	1557	123.62653555263	1
0	1566	123.819200499112	1
0	1582	124.995116513445	1
0	1593	125.427564036193	1
0	1602	125.641771909561	1
0	1615	126.144880130924	1
0	1626	127.158181824678	1
0	1629	127.227560454628	1
0	1643	127.618923111712	1
0	1656	128.294607075504	1
0	1659	128.342909037194	1
0	1669	128.550462140578	1
0	1674	128.607627073054	1
0	1676	128.636733990163	1
0	1701	129.970154439301	1
0	1712	132.641392615719	1
0	1721	132.940762598191	1
0	1724	133.002837786389	1
0	1740	133.41094760531	1
0	1753	134.459838467694	1
0	1762	134.718479261482	1
0	1775	135.277215988352	1
0	1784	135.649173071368	1
0	1789	135.72692015307	1
0	1805	137.159514344972	1
0	1816	137.753299164421	1
0	1827	139.871360223622	1
0	1838	140.326997323291	1
0	1847	140.553490314578	1
0	1860	141.188777833472	1
0	1863	141.200541966085	1
0	1879	143.387322094699	1
0	1890	145.77605487229	1
0	1901	150.022797167734	1
0	1912	151.936730509594	1
0	1923	152.805251209607	1
0	1926	152.868631265831	1
0	1940	153.218357231324	1
0	1953	153.829339732616	1
0	1964	154.291991171615	1
0	1975	155.151949201099	1
0	1986	156.347109426004	1
0	1997	159.335495270153	1
0	2008	160.128070998487	1
0	2019	160.636777721532	1
0	2022	160.719282274934	1
0	2038	162.010020270809	1
0	2049	162.853511480791	1
0	2060	163.546446644444	1
0	2071	166.315612500025	1
0	2082	168.641022116177	1
0	2091	168.857369553181	1
0	2104	169.730667928024	1
0	2113	170.129685118091	1
0	2118	170.176370666703	1
0	2123	170.245396894184	1
0	2134	170.528304180029	1
0	2152	171.916081988532	1
0	2161	172.236926832601	1
0	2172	172.510351739601	1
0	2180	172.649209216717	1
0	2189	172.79250871519	1
0	2192	172.806650789791	1
0	2201	172.949124842244	1
0	2221	174.271774294262	1
0	2230	174.532318179553	1
0	2241	174.829440856566	1
0	2244	174.835110919727	1
0	2262	176.022695573729	1
0	2273	177.12775886884	1
0	2279	177.252903350111	1
0	2294	178.79120865093	1
0	2300	178.975751612144	1
0	2315	181.055493276991	1
0	2324	181.326185890517	1
0	2335	181.613980937604	1
0	2348	182.326584912191	1
0	2359	182.840746458667	1
0	2370	184.574751672727	1
0	2381	185.653381848509	1
0	2384	185.73831306399	1
0	2400	186.579628597953	1
0	2411	187.843799441929	1
0	2420	188.092961572882	1
0	2433	188.97706401667	1
0	2442	189.371545942841	1
0	2455	191.085919416725	1
0	2466	192.971053201972	1
0	2469	193.030185860073	1
0	2485	194.080151737308	1
0	2491	194.194642700507	1
0	2494	194.258090400827	1
0	2502	194.309621810916	1
0	2510	194.494439688561	1
0	2530	195.632639783248	1
0	2541	197.38632231151	1
0	2552	197.869542164046	1
0	2563	198.295324725429	1
0	2569	198.451717793978	1
0	2578	198.634756398744	1
0	2594	199.304062117254	1
0	2603	199.644920553788	1
1	2	0.577144061132	1
1	13	2.616889028598	1
1	24	3.803715123244	1
1	35	4.664612548188	1
1	46	6.299425455245	1
1	55	6.664346937282	1
1	58	6.670810537485	1
1	65	6.799889861502	1
1	80	7.096434697679	1
1	88	7.276236325065	1
1	104	9.80479245473	1
1	113	10.00560934713	1
1	126	10.581394018442	1
1	135	10.889248463287	1
1	146	11.195762669922	1
1	157	11.557958715697	1
1	170	12.177791545066	1
1	181	12.797299317998	1
1	187	12.997356559827	1
1	203	13.912473800344	1
1	214	15.226378949746	1
1	225	15.838867776699	1
1	234	16.174017691392	1
1	245	16.401494246992	1
1	258	17.020787163927	1
1	269	19.733636015003	1
1	272	19.738348901481	1
1	277	19.869703784384	1
1	296	20.764312992011	1
1	302	20.962015813681	1
1	311	21.150618253607	1
1	325	21.429704513629	1
1	338	23.58688952648	1
1	347	23.925788345056	1
1	358	24.300825104053	1
1	371	28.099600402228	1
1	382	29.216414138528	1
1	391	29.421965482337	1
1	404	30.574190920471	1
1	415	33.554419097611	1
1	426	35.189675284464	1
1	429	35.284532702401	1
1	434	35.377859699559	1
1	445	35.529824122839	1
1	459	35.815269204393	1
1	473	37.100719132249	1
1	484	37.616061164059	1
1	495	39.636360599476	1
1	506	40.530441891067	1
1	517	41.141835484196	1
1	526	41.380121012559	1
1	529	41.461390880138	1
1	547	42.427645220433	1
1	553	42.527753299401	1
1	568	43.383773308505	1
1	577	43.630166692764	1
1	585	43.790888634848	1
1	600	44.804887233042	1
1	609	45.11584795785	1
1	617	45.26529939022	1
1	632	47.013407405242	1
1	643	50.264217389096	1
1	646	50.33384030696	1
1	648	50.355576502881	2
1	670	51.453692058457	1
1	673	51.462997672772	1
1	675	51.514500540862	2
1	697	53.488948803025	1
1	708	54.540816052759	1
1	719	56.26051530978	1
1	730	57.345939037042	1
1	733	57.413893044821	1
1	747	57.833178203118	1
1	760	58.78774646114	1
1	771	62.590960702332	1
1	782	63.527857168255	1
1	793	64.00924161958	1
1	804	67.288336965082	1
1	810	67.456793837596	1
1	825	68.307188404267	1
1	834	68.653819058801	1
1	842	68.822232474303	1
1	857	69.825916871506	1
1	868	71.177967966825	1
1	877	71.531798263843	1
1	888	71.891967452521	1
1	893	71.934366248532	1
1	895	71.966910871281	2
1	909	72.270654029357	1
1	927	76.716937085434	1
1	938	82.100363775638	1
1	949	83.0123469835	1
1	958	83.283981977174	1
1	971	84.347434492627	1
1	982	84.843048381348	1
1	993	85.708947339819	1
1	1004	86.772177499038	1
1	1013	87.089129004996	1
1	1026	89.390478487272	1
1	1037	90.439327345143	1
1	1043	90.593615397325	1
1	1052	90.75605792425	1
1	1062	90.947091584308	1
1	1076	91.428777308256	1
1	1084	91.542468479265	1
1	1093	91.742354010086	1
1	1103	91.929597490519	1
1	1119	92.483776007459	1
1	1130	96.840847618219	1
1	1141	97.841203194925	1
1	1150	98.067779050442	1
1	1156	98.22713670646	1
1	1164	98.320411539925	1
1	1181	100.228979201257	1
1	1192	100.787217977209	1
1	1195	100.87896119722	1
1	1209	101.366185181859	1
1	1222	102.415180869225	1
1	1233	103.476063778047	1
1	1244	104.642523286575	1
1	1255	105.418579387636	1
1	1264	105.742015812834	1
1	1277	106.518339313506	1
1	1288	107.642289182381	1
1	1294	107.772466820711	1
1	1309	108.946701808543	1
1	1320	109.564929665577	1
1	1331	110.30265617962	1
1	1337	110.405238616095	1
1	1352	111.128734715754	1
1	1358	111.26160248707	1
1	1373	113.040073134703	1
1	1384	113.518602503972	1
1	1387	113.59396086527	1
1	1401	114.042355086696	1
1	1414	114.755071085888	1
1	1425	115.813462595861	1
1	1436	116.566462663529	1
1	1439	116.62759743479	1
1	1451	116.906895976732	1
1	1463	117.168351283999	1
1	1476	118.053772039817	1
1	1482	118.198312393979	1
1	1497	119.873514170023	1
1	1508	120.441078750765	1
1	1519	121.11241214687	1
1	1530	121.804987493529	1
1	1541	122.624249036516	1
1	1552	123.438482507038	1
1	1558	123.62653555263	1
1	1567	123.819200499112	1
1	1583	124.995116513445	1
1	1594	125.427564036193	1
1	1603	125.641771909561	1
1	1616	126.144880130924	1
1	1627	127.158181824678	1
1	1630	127.227560454628	1
1	1644	127.618923111712	1
1	1657	128.294607075504	1
1	1660	128.342909037194	1
1	1670	128.550462140578	1
1	1675	128.607627073054	1
1	1677	128.636733990163	2
1	1702	129.970154439301	1
1	1713	132.641392615719	1
1	1722	132.940762598191	1
1	1725	133.002837786389	1
1	1741	133.41094760531	1
1	1754	134.459838467694	1
1	1763	134.718479261482	1
1	1776	135.277215988352	1
1	1785	135.649173071368	1
1	1790	135.72692015307	1
1	1806	137.159514344972	1
1	1817	137.753299164421	1
1	1828	139.871360223622	1
1	1839	140.326997323291	1
1	1848	140.553490314578	1
1	1861	141.188777833472	1
1	1864	141.200541966085	1
1	1880	143.387322094699	1
1	1891	145.77605487229	1
1	1902	150.022797167734	1
1	1913	151.936730509594	1
1	1924	152.805251209607	1
1	1927	152.868631265831	1
1	1941	153.218357231324	1
1	1954	153.829339732616	1
1	1965	154.291991171615	1
1	1976	155.151949201099	1
1	1987	156.347109426004	1
1	1998	159.335495270153	1
1	2009	160.128070998487	1
1	2020	160.636777721532	1
1	2023	160.719282274934	1
1	2039	162.010020270809	1
1	2050	162.853511480791	1
1	2061	163.546446644444	1
1	2072	166.315612500025	1
1	2083	168.641022116177	1
1	2092	168.857369553181	1
1	2105	169.730667928024	1
1	2114	170.129685118091	1
1	2119	170.176370666703	1
1	2124	170.245396894184	1
1	2135	170.528304180029	1
1	2153	171.916081988532	1
1	2162	172.236926832601	1
1	2173	172.510351739601	1
1	2181	172.649209216717	1
1	2190	172.79250871519	1
1	2193	172.806650789791	1
1	2202	172.949124842244	1
1	2222	174.271774294262	1
1	2231	174.532318179553	1
1	2242	174.829440856566	1
1	2245	174.835110919727	1
1	2263	176.022695573729	1
1	2274	177.12775886884	1
1	2280	177.252903350111	1
1	2295	178.79120865093	1
1	2301	178.975751612144	1
1	2316	181.055493276991	1
1	2325	181.326185890517	1
1	2336	181.613980937604	1
1	2349	182.326584912191	1
1	2360	182.840746458667	1
1	2371	184.574751672727	1
1	2382	185.653381848509	1
1	2385	185.73831306399	1
1	2401	186.579628597953	1
1	2412	187.843799441929	1
1	2421	188.092961572882	1
1	2434	188.97706401667	1
1	2443	189.371545942841	1
1	2456	191.085919416725	1
1	2467	192.971053201972	1
1	2470	193.030185860073	1
1	2486	194.080151737308	1
1	2492	194.194642700507	1
1	2495	194.258090400827	1
1	2503	194.309621810916	1
1	2511	194.494439688561	1
1	2531	195.632639783248	1
1	2542	197.38632231151	1
1	2553	197.869542164046	1
1	2564	198.295324725429	1
1	2570	198.451717793978	1
1	2579	198.634756398744	1
1	2595	199.304062117254	1
1	2604	199.644920553788	1
2	5	0.677244061132	1
2	16	2.716989028598	1
2	27	3.903815123244	1
2	38	4.764712548188	1
2	49	6.399525455245	1
2	62	6.764446937282	1
2	67	6.864446937282	1
2	72	6.964446937282	1
2	83	7.196534697679	1
2	93	7.376336325065	1
2	107	9.90489245473	1
2	116	10.10570934713	1
2	129	10.681494018442	1
2	140	10.989348463287	1
2	151	11.295862669922	1
2	162	11.658058715697	1
2	173	12.277891545066	1
2	184	12.897399317998	1
2	193	13.097456559827	1
2	206	14.012573800344	1
2	217	15.326478949746	1
2	228	15.938967776699	1
2	239	16.274117691392	1
2	248	16.501594246992	1
2	261	17.120887163927	1
2	274	19.833736015003	1
2	279	19.933736015003	1
2	284	20.033736015003	1
2	299	20.864412992011	1
2	308	21.062115813681	1
2	318	21.250718253607	1
2	328	21.529804513629	1
2	341	23.68698952648	1
2	352	24.025888345056	1
2	363	24.400925104053	1
2	374	28.199700402228	1
2	385	29.316514138528	1
2	394	29.522065482337	1
2	407	30.674290920471	1
2	418	33.654519097611	1
2	431	35.289775284464	1
2	436	35.389775284464	1
2	441	35.489775284464	1
2	452	35.629924122839	1
2	462	35.915369204393	1
2	476	37.200819132249	1
2	487	37.716161164059	1
2	498	39.736460599476	1
2	509	40.630541891067	1
2	520	41.241935484196	1
2	531	41.480221012559	1
2	536	41.580221012559	1
2	550	42.527745220433	1
2	559	42.627853299401	1
2	571	43.483873308505	1
2	580	43.730266692764	1
2	591	43.890988634848	1
2	603	44.904987233042	1
2	614	45.21594795785	1
2	623	45.36539939022	1
2	635	47.113507405242	1
2	650	50.364317389096	1
2	653	50.464317389096	1
2	658	50.564317389096	1
2	677	51.553792058457	1
2	680	51.653792058457	1
2	685	51.753792058457	1
2	700	53.589048803025	1
2	711	54.640916052759	1
2	722	56.36061530978	1
2	735	57.446039037042	1
2	738	57.546039037042	1
2	750	57.933278203118	1
2	763	58.88784646114	1
2	774	62.691060702332	1
2	785	63.627957168255	1
2	796	64.10934161958	1
2	807	67.388436965082	1
2	816	67.556893837596	1
2	828	68.407288404267	1
2	839	68.753919058801	1
2	848	68.922332474303	1
2	860	69.926016871506	1
2	871	71.278067966825	1
2	882	71.631898263843	1
2	897	71.992067452521	1
2	900	72.092067452521	1
2	905	72.192067452521	1
2	916	72.370754029357	1
2	930	76.817037085434	1
2	941	82.200463775638	1
2	952	83.1124469835	1
2	961	83.384081977174	1
2	974	84.447534492627	1
2	985	84.943148381348	1
2	996	85.809047339819	1
2	1007	86.872277499038	1
2	1018	87.189229004996	1
2	1029	89.490578487272	1
2	1040	90.539427345143	1
2	1049	90.693715397325	1
2	1059	90.85615792425	1
2	1069	91.047191584308	1
2	1081	91.528877308256	1
2	1090	91.642568479265	1
2	1100	91.842454010086	1
2	1110	92.029697490519	1
2	1122	92.583876007459	1
2	1133	96.940947618219	1
2	1144	97.941303194925	1
2	1153	98.167879050442	1
2	1166	98.32723670646	1
2	1169	98.42723670646	1
2	1184	100.329079201257	1
2	1197	100.887317977209	1
2	1200	100.987317977209	1
2	1214	101.466285181859	1
2	1225	102.515280869225	1
2	1236	103.576163778047	1
2	1247	104.742623286575	1
2	1258	105.518679387636	1
2	1269	105.842115812834	1
2	1280	106.618439313506	1
2	1291	107.742389182381	1
2	1300	107.872566820711	1
2	1312	109.046801808543	1
2	1323	109.665029665577	1
2	1334	110.40275617962	1
2	1343	110.505338616095	1
2	1355	111.228834715754	1
2	1364	111.36170248707	1
2	1376	113.140173134703	1
2	1389	113.618702503972	1
2	1392	113.718702503972	1
2	1406	114.142455086696	1
2	1417	114.855171085888	1
2	1428	115.913562595861	1
2	1441	116.666562663529	1
2	1444	116.766562663529	1
2	1456	117.006995976732	1
2	1466	117.268451283999	1
2	1479	118.153872039817	1
2	1488	118.298412393979	1
2	1500	119.973614170023	1
2	1511	120.541178750765	1
2	1522	121.21251214687	1
2	1533	121.905087493529	1
2	1544	122.724349036516	1
2	1555	123.538582507038	1
2	1564	123.72663555263	1
2	1574	123.919300499112	1
2	1586	125.095216513445	1
2	1597	125.527664036193	1
2	1606	125.741871909561	1
2	1619	126.244980130924	1
2	1632	127.258281824678	1
2	1635	127.358281824678	1
2	1647	127.719023111712	1
2	1662	128.394707075504	1
2	1665	128.494707075504	1
2	1679	128.650562140578	1
2	1684	128.750562140578	1
2	1688	128.850562140578	1
2	1705	130.070254439301	1
2	1716	132.741492615719	1
2	1727	133.040862598191	1
2	1732	133.140862598191	1
2	1744	133.51104760531	1
2	1757	134.559938467694	1
2	1766	134.818579261482	1
2	1779	135.377315988352	1
2	1792	135.749273071368	1
2	1795	135.849273071368	1
2	1809	137.259614344972	1
2	1820	137.853399164421	1
2	1831	139.971460223622	1
2	1842	140.427097323291	1
2	1851	140.653590314578	1
2	1866	141.288877833472	1
2	1869	141.388877833472	1
2	1883	143.487422094699	1
2	1894	145.87615487229	1
2	1905	150.122897167734	1
2	1916	152.036830509594	1
2	1929	152.905351209607	1
2	1932	153.005351209607	1
2	1944	153.318457231324	1
2	1957	153.929439732616	1
2	1968	154.392091171615	1
2	1979	155.252049201099	1
2	1990	156.447209426004	1
2	2001	159.435595270153	1
2	2012	160.228170998487	1
2	2025	160.736877721532	1
2	2028	160.836877721532	1
2	2042	162.110120270809	1
2	2053	162.953611480791	1
2	2064	163.646546644444	1
2	2075	166.415712500025	1
2	2086	168.741122116177	1
2	2095	168.957469553181	1
2	2108	169.830767928024	1
2	2121	170.229785118091	1
2	2126	170.329785118091	1
2	2131	170.429785118091	1
2	2142	170.628404180029	1
2	2156	172.016181988532	1
2	2167	172.337026832601	1
2	2176	172.610451739601	1
2	2187	172.749309216717	1
2	2197	172.89260871519	1
2	2204	172.99260871519	1
2	2208	173.09260871519	1
2	2225	174.371874294262	1
2	2234	174.632418179553	1
2	2247	174.929540856566	1
2	2252	175.029540856566	1
2	2266	176.122795573729	1
2	2277	177.22785886884	1
2	2286	177.353003350111	1
2	2298	178.89130865093	1
2	2307	179.075851612144	1
2	2319	181.155593276991	1
2	2328	181.426285890517	1
2	2339	181.714080937604	1
2	2352	182.426684912191	1
2	2363	182.940846458667	1
2	2374	184.674851672727	1
2	2387	185.753481848509	1
2	2390	185.853481848509	1
2	2404	186.679728597953	1
2	2415	187.943899441929	1
2	2424	188.193061572882	1
2	2437	189.07716401667	1
2	2448	189.471645942841	1
2	2459	191.186019416725	1
2	2472	193.071153201972	1
2	2475	193.171153201972	1
2	2489	194.180251737308	1
2	2500	194.294742700507	1
2	2505	194.394742700507	1
2	2513	194.494742700507	1
2	2517	194.594742700507	1
2	2534	195.732739783248	1
2	2545	197.48642231151	1
2	2556	197.969642164046	1
2	2567	198.395424725429	1
2	2576	198.551817793978	1
2	2586	198.734856398744	1
2	2598	199.404162117254	1
2	2609	199.745020553788	1
3	8	0.777344061132	1
3	19	2.817089028598	1
3	30	4.003915123244	1
3	41	4.864812548188	1
3	52	6.499625455245	1
3	69	6.864546937282	1
3	74	6.964546937282	1
3	78	7.064546937282	1
3	91	7.296634697679	1
3	98	7.476436325065	1
3	110	10.00499245473	1
3	121	10.20580934713	1
3	132	10.781594018442	1
3	143	11.089448463287	1
3	154	11.395962669922	1
3	165	11.758158715697	1
3	176	12.377991545066	1
3	190	12.997499317998	1
3	198	13.197556559827	1
3	209	14.112673800344	1
3	220	15.426578949746	1
3	231	16.039067776699	1
3	242	16.374217691392	1
3	253	16.601694246992	1
3	264	17.220987163927	1
3	281	19.933836015003	1
3	286	20.033836015003	1
3	290	20.133836015003	1
3	305	20.964512992011	1
3	314	21.162215813681	1
3	321	21.350818253607	1
3	333	21.629904513629	1
3	344	23.78708952648	1
3	355	24.125988345056	1
3	366	24.501025104053	1
3	377	28.299800402228	1
3	388	29.416614138528	1
3	399	29.622165482337	1
3	410	30.774390920471	1
3	421	33.754619097611	1
3	438	35.389875284464	1
3	443	35.489875284464	1
3	450	35.589875284464	1
3	455	35.730024122839	2
3	467	36.015469204393	1
3	479	37.300919132249	1
3	490	37.816261164059	1
3	501	39.836560599476	1
3	512	40.730641891067	1
3	523	41.342035484196	1
3	538	41.580321012559	1
3	541	41.680321012559	1
3	557	42.627845220433	1
3	562	42.727953299401	1
3	574	43.583973308505	1
3	588	43.830366692764	1
3	594	43.991088634848	1
3	606	45.005087233042	1
3	620	45.31604795785	1
3	626	45.46549939022	1
3	638	47.213607405242	1
3	655	50.464417389096	1
3	660	50.564417389096	1
3	664	50.664417389096	1
3	682	51.653892058457	1
3	687	51.753892058457	1
3	691	51.853892058457	1
3	703	53.689148803025	1
3	714	54.741016052759	1
3	725	56.46071530978	1
3	740	57.546139037042	1
3	743	57.646139037042	1
3	755	58.033378203118	1
3	766	58.98794646114	1
3	777	62.791160702332	1
3	788	63.728057168255	1
3	799	64.20944161958	1
3	813	67.488536965082	1
3	819	67.656993837596	1
3	831	68.507388404267	1
3	845	68.854019058801	1
3	851	69.022432474303	1
3	863	70.026116871506	1
3	874	71.378167966825	1
3	885	71.731998263843	1
3	902	72.092167452521	1
3	907	72.192167452521	1
3	914	72.292167452521	1
3	919	72.470854029357	2
3	933	76.917137085434	1
3	944	82.300563775638	1
3	955	83.2125469835	1
3	966	83.484181977174	1
3	977	84.547634492627	1
3	988	85.043248381348	1
3	999	85.909147339819	1
3	1010	86.972377499038	1
3	1021	87.289329004996	1
3	1032	89.590678487272	1
3	1046	90.639527345143	1
3	1055	90.793815397325	1
3	1065	90.95625792425	1
3	1072	91.147291584308	1
3	1087	91.628977308256	1
3	1096	91.742668479265	1
3	1106	91.942554010086	1
3	1113	92.129797490519	1
3	1125	92.683976007459	1
3	1136	97.041047618219	1
3	1147	98.041403194925	1
3	1161	98.267979050442	1
3	1171	98.42733670646	1
3	1175	98.52733670646	1
3	1187	100.429179201257	1
3	1202	100.987417977209	1
3	1205	101.087417977209	1
3	1217	101.566385181859	1
3	1228	102.615380869225	1
3	1239	103.676263778047	1
3	1250	104.842723286575	1
3	1261	105.618779387636	1
3	1272	105.942215812834	1
3	1283	106.718539313506	1
3	1297	107.842489182381	1
3	1303	107.972666820711	1
3	1315	109.146901808543	1
3	1326	109.765129665577	1
3	1340	110.50285617962	1
3	1346	110.605438616095	1
3	1361	111.328934715754	1
3	1367	111.46180248707	1
3	1379	113.240273134703	1
3	1394	113.718802503972	1
3	1397	113.818802503972	1
3	1409	114.242555086696	1
3	1420	114.955271085888	1
3	1431	116.013662595861	1
3	1446	116.766662663529	1
3	1449	116.866662663529	1
3	1459	117.107095976732	1
3	1471	117.368551283999	1
3	1485	118.253972039817	1
3	1491	118.398512393979	1
3	1503	120.073714170023	1
3	1514	120.641278750765	1
3	1525	121.31261214687	1
3	1536	122.005187493529	1
3	1547	122.824449036516	1
3	1561	123.638682507038	1
3	1570	123.82673555263	1
3	1577	124.019400499112	1
3	1589	125.195316513445	1
3	1600	125.627764036193	1
3	1611	125.841971909561	1
3	1622	126.345080130924	1
3	1637	127.358381824678	1
3	1640	127.458381824678	1
3	1652	127.819123111712	1
3	1667	128.494807075504	1
3	1673	128.594807075504	1
3	1686	128.750662140578	1
3	1690	128.850662140578	2
3	1694	128.950662140578	2
3	1708	130.170354439301	1
3	1719	132.841592615719	1
3	1734	133.140962598191	1
3	1737	133.240962598191	1
3	1749	133.61114760531	1
3	1760	134.660038467694	1
3	1771	134.918679261482	1
3	1782	135.477415988352	1
3	1797	135.849373071368	1
3	1800	135.949373071368	1
3	1812	137.359714344972	1
3	1823	137.953499164421	1
3	1834	140.071560223622	1
3	1845	140.527197323291	1
3	1856	140.753690314578	1
3	1871	141.388977833472	1
3	1874	141.488977833472	1
3	1886	143.587522094699	1
3	1897	145.97625487229	1
3	1908	150.222997167734	1
3	1919	152.136930509594	1
3	1934	153.005451209607	1
3	1937	153.105451209607	1
3	1949	153.418557231324	1
3	1960	154.029539732616	1
3	1971	154.492191171615	1
3	1982	155.352149201099	1
3	1993	156.547309426004	1
3	2004	159.535695270153	1
3	2015	160.328270998487	1
3	2030	160.836977721532	1
3	2033	160.936977721532	1
3	2045	162.210220270809	1
3	2056	163.053711480791	1
3	2067	163.746646644444	1
3	2078	166.515812500025	1
3	2089	168.841222116177	1
3	2100	169.057569553181	1
3	2111	169.930867928024	1
3	2128	170.329885118091	1
3	2133	170.429885118091	1
3	2140	170.529885118091	1
3	2145	170.728504180029	2
3	2159	172.116281988532	1
3	2170	172.437126832601	1
3	2184	172.710551739601	1
3	2195	172.849409216717	1
3	2206	172.99270871519	1
3	2210	173.09270871519	2
3	2214	173.19270871519	2
3	2228	174.471974294262	1
3	2239	174.732518179553	1
3	2254	175.029640856566	1
3	2257	175.129640856566	1
3	2269	176.222895573729	1
3	2283	177.32795886884	1
3	2289	177.453103350111	1
3	2304	178.99140865093	1
3	2310	179.175951612144	1
3	2322	181.255693276991	1
3	2333	181.526385890517	1
3	2344	181.814180937604	1
3	2355	182.526784912191	1
3	2366	183.040946458667	1
3	2377	184.774951672727	1
3	2392	185.853581848509	1
3	2395	185.953581848509	1
3	2407	186.779828597953	1
3	2418	188.043999441929	1
3	2429	188.293161572882	1
3	2440	189.17726401667	1
3	2451	189.571745942841	1
3	2462	191.286119416725	1
3	2477	193.171253201972	1
3	2480	193.271253201972	1
3	2497	194.280351737308	1
3	2507	194.394842700507	1
3	2515	194.494842700507	1
3	2519	194.594842700507	2
3	2523	194.694842700507	2
3	2537	195.832839783248	1
3	2548	197.58652231151	1
3	2559	198.069742164046	1
3	2573	198.495524725429	1
3	2582	198.651917793978	1
3	2589	198.834956398744	1
3	2601	199.504262117254	1
3	2612	199.845120553788	1
4	10	0.977344061132	0.4002
4	21	3.017089028598	0.4002
4	32	4.203915123244	0.4002
4	43	5.064812548188	0.4002
4	59	6.699625455245	0.4002
4	76	7.064546937282	0.4002
4	85	7.264546937282	0.593736399797
4	95	7.464546937282	0.66465707578
4	99	7.664546937282	0.568112239603
4	101	7.864546937282	0.588310612217
4	118	10.20499245473	0.4002
4	123	10.40580934713	0.4002
4	137	10.981594018442	0.4002
4	148	11.289448463287	0.4002
4	159	11.595962669922	0.4002
4	167	11.958158715697	0.4002
4	178	12.577991545066	0.4002
4	196	13.197499317998	0.4002
4	200	13.397556559827	0.4002
4	211	14.312673800344	0.4002
4	222	15.626578949746	0.4002
4	236	16.239067776699	0.4002
4	250	16.574217691392	0.4002
4	255	16.801694246992	0.4002
4	266	17.420987163927	0.4002
4	288	20.133836015003	0.4002
4	291	20.333836015003	0.595487113522
4	293	20.533836015003	0.664132230619
4	315	21.164512992011	0.4002
4	322	21.364512992011	0.40249717833
4	330	21.564512992011	0.413894738404
4	335	21.829904513629	0.4002
4	349	23.98708952648	0.4002
4	360	24.325988345056	0.4002
4	368	24.701025104053	0.4002
4	379	28.499800402228	0.4002
4	396	29.616614138528	0.4002
4	401	29.822165482337	0.4002
4	412	30.974390920471	0.4002
4	423	33.954619097611	0.4002
4	448	35.589875284464	0.4002
4	456	35.789875284464	0.505342582063
4	464	35.989875284464	0.612015584905
4	468	36.189875284464	0.660051161625
4	470	36.389875284464	0.574606080071
4	481	37.500919132249	0.4002
4	492	38.016261164059	0.4002
4	503	40.036560599476	0.4002
4	514	40.930641891067	0.4002
4	533	41.542035484196	0.4002
4	542	41.780321012559	0.4002
4	544	41.980321012559	0.518930132421
4	563	42.827845220433	0.4002
4	565	43.027845220433	0.500091921032
4	582	43.783973308505	0.4002
4	595	44.030366692764	0.4002
4	597	44.230366692764	0.439478057916
4	611	45.205087233042	0.4002
4	627	45.51604795785	0.4002
4	629	45.71604795785	0.45074856763
4	640	47.413607405242	0.4002
4	662	50.664417389096	0.4002
4	665	50.864417389096	0.530577082136
4	667	51.064417389096	0.708840886215
4	689	51.853892058457	0.4002
4	692	52.053892058457	0.590894385685
4	694	52.253892058457	0.739391517595
4	705	53.889148803025	0.4002
4	716	54.941016052759	0.4002
4	727	56.66071530978	0.4002
4	744	57.746139037042	0.4002
4	752	57.946139037042	0.532245992221
4	757	58.233378203118	0.4002
4	768	59.18794646114	0.4002
4	779	62.991160702332	0.4002
4	790	63.928057168255	0.4002
4	801	64.40944161958	0.4002
4	820	67.688536965082	0.4002
4	822	67.888536965082	0.431743127486
4	836	68.707388404267	0.4002
4	852	69.054019058801	0.4002
4	854	69.254019058801	0.431786584498
4	865	70.226116871506	0.4002
4	879	71.578167966825	0.4002
4	890	71.931998263843	0.4002
4	912	72.292167452521	0.4002
4	920	72.492167452521	0.557801203989
4	922	72.692167452521	0.72525658124
4	924	72.892167452521	0.621513423164
4	935	77.117137085434	0.4002
4	946	82.500563775638	0.4002
4	963	83.4125469835	0.4002
4	968	83.684181977174	0.4002
4	979	84.747634492627	0.4002
4	990	85.243248381348	0.4002
4	1001	86.109147339819	0.4002
4	1015	87.172377499038	0.4002
4	1023	87.489329004996	0.4002
4	1034	89.790678487272	0.4002
4	1056	90.839527345143	0.4002
4	1066	91.039527345143	0.445911947818
4	1073	91.239527345143	0.483469420893
4	1078	91.439527345143	0.492435760835
4	1097	91.828977308256	0.4002
4	1107	92.028977308256	0.486508828991
4	1114	92.228977308256	0.48662329817
4	1116	92.428977308256	0.499379817737
4	1127	92.883976007459	0.4002
4	1138	97.241047618219	0.4002
4	1158	98.241403194925	0.4002
4	1172	98.467979050442	0.4002
4	1176	98.667979050442	0.440842343982
4	1178	98.867979050442	0.547567510517
4	1189	100.629179201257	0.4002
4	1206	101.187417977209	0.4002
4	1211	101.387417977209	0.508456779989
4	1219	101.766385181859	0.4002
4	1230	102.815380869225	0.4002
4	1241	103.876263778047	0.4002
4	1252	105.042723286575	0.4002
4	1266	105.818779387636	0.4002
4	1274	106.142215812834	0.4002
4	1285	106.918539313506	0.4002
4	1304	108.042489182381	0.4002