version 3
run BaseVersion-3-20240511-20:45:07-11874
attr configname BaseVersion
attr datetime 20240511-20:45:07
attr datetimef 20240511-204507
attr experiment BaseVersion
attr inifile omnetpp.ini
attr iterationvars $genInterval=0.25
attr iterationvarsd genInterval=0.25
attr iterationvarsf genInterval=0.25-
attr measurement $genInterval=0.25
attr network Network
attr processid 11874
attr repetition 0
attr replication #0
attr resultdir results
attr runnumber 3
attr seedset 3
itervar genInterval 0.25
config network Network
config sim-time-limit 200s
config Network.nodeTx.gen.generationInterval exponential(0.25)
config Network.nodeTx.gen.packetByteSize 12500
config Network.nodeTx.queue.bufferSize 200
config Network.nodeRx.queue.bufferSize 200
config Network.queue.bufferSize 200

vector 0 Network.nodeTx.gen packetGen ETV
vector 1 Network.nodeTx.queue bufferSize ETV
vector 2 Network.queue bufferSize ETV
vector 3 Network.nodeRx.queue bufferSize ETV
vector 4 Network.nodeRx.sink Delay ETV
vector 5 Network.nodeRx.sink packetUsed ETV
0	1	0.200070597723	1
0	4	0.218408207214	1
0	16	0.526285168524	1
0	28	0.984350925737	1
0	33	1.070292277811	1
0	38	1.102628343184	1
0	45	1.281388417523	1
0	59	1.491980863331	1
0	73	2.050588574896	1
0	81	2.194234993599	1
0	96	2.760781629165	1
0	99	2.765513124701	1
0	101	2.799063261954	1
0	103	2.809433069138	1
0	108	2.867492664755	1
0	110	2.938710272538	1
0	112	2.951920001958	1
0	119	2.976475266317	1
0	125	3.121791686831	1
0	143	3.418508060885	1
0	145	3.42609096082	1
0	151	3.465362667007	1
0	159	3.617947383406	1
0	171	3.768852762458	1
0	183	4.030697648249	1
0	189	4.091399368028	1
0	197	4.17300068715	1
0	203	4.282202897155	1
0	221	4.56415260011	1
0	229	4.733784207306	1
0	241	4.957210395792	1
0	257	5.568539933673	1
0	260	5.574608466282	1
0	273	5.93753157867	1
0	283	6.142126475072	1
0	301	7.051181822982	1
0	304	7.126205671318	1
0	315	7.254897618262	1
0	325	7.388976726159	1
0	337	7.5901483842	1
0	340	7.673501395332	1
0	347	7.764952167598	1
0	361	8.060291388003	1
0	371	8.28113837413	1
0	379	8.42629563478	1
0	384	8.506663993214	1
0	389	8.549321853723	1
0	397	8.700884365186	1
0	409	8.897556054329	1
0	423	9.251914860797	1
0	435	9.630804734066	1
0	447	10.056152916073	1
0	450	10.147604735197	1
0	457	10.222066556684	1
0	463	10.284810212417	1
0	481	10.843693987501	1
0	489	10.96643799551	1
0	501	11.28327446358	1
0	517	11.971995666788	1
0	520	11.977203153505	1
0	539	12.909580894458	1
0	542	12.94807778886	1
0	556	13.227055815649	1
0	561	13.325429887343	1
0	576	13.908263756833	1
0	589	14.322041566039	1
0	600	14.789338134211	1
0	606	14.916624458344	1
0	615	15.035325861581	1
0	623	15.173542469944	1
0	628	15.197729952009	1
0	635	15.331218837649	1
0	651	15.596122674052	1
0	661	15.982901064497	1
0	671	16.186922364233	1
0	683	16.499483928007	1
0	691	16.611667687697	1
0	694	16.61751493032	1
0	696	16.681255574868	1
0	703	16.776119859647	1
0	711	16.906557765689	1
0	727	17.11338179742	1
0	737	17.271601980412	1
0	751	17.616339764318	1
0	754	17.694755799905	1
0	767	17.929916810201	1
0	772	18.016171443998	1
0	777	18.073007826087	1
0	785	18.225985537017	1
0	799	18.491048080085	1
0	811	18.983531530622	1
0	823	19.255216985696	1
0	833	19.47584207707	1
0	845	19.987967467776	1
0	850	20.071307490074	1
0	865	20.488111002695	1
0	868	20.569535750162	1
0	875	20.686686793654	1
0	887	20.838255868013	1
0	890	20.857800344016	1
0	894	20.915282706179	1
0	913	21.272665116589	1
0	916	21.328882224322	1
0	918	21.345355697933	1
0	929	21.525760394136	1
0	945	21.985537888396	1
0	950	22.008355551901	1
0	963	22.303284360988	1
0	971	22.468495762419	1
0	981	22.616098487024	1
0	989	22.728521795709	1
0	999	22.841009488796	1
0	1011	23.148491700494	1
0	1019	23.329958172	1
0	1033	23.673298976957	1
0	1041	23.826113448703	1
0	1053	24.119792140239	1
0	1065	24.532829219995	1
0	1077	24.824964883136	1
0	1080	24.920018241308	1
0	1091	25.036959822296	1
0	1105	25.501093679377	1
0	1115	25.776850287333	1
0	1123	25.944839243104	1
0	1133	26.048660786382	1
0	1143	26.242857992977	1
0	1155	26.455480150935	1
0	1167	26.892839228959	1
0	1172	26.991399003362	1
0	1181	27.175728288762	1
0	1191	27.322990427316	1
0	1194	27.36145291793	1
0	1198	27.377328729917	1
0	1205	27.467307209269	1
0	1211	27.536798046267	1
0	1231	27.948093692196	1
0	1249	28.838458196609	1
0	1252	28.93468823685	1
0	1259	29.000219177394	1
0	1261	29.005582738762	1
0	1278	29.299572872793	1
0	1288	29.464233130277	1
0	1300	29.727029509183	1
0	1303	29.733622245056	1
0	1318	30.05540572456	1
0	1324	30.231495200097	1
0	1334	30.392626651369	1
0	1350	31.017977207799	1
0	1362	31.244973399254	1
0	1365	31.302945737794	1
0	1367	31.320275064167	1
0	1389	31.970296481358	1
0	1392	31.989128851666	1
0	1397	32.070327095201	1
0	1401	32.125793195526	1
0	1408	32.174208229146	1
0	1410	32.215385912364	1
0	1442	33.374323895268	1
0	1445	33.400693010329	1
0	1457	33.695635540621	1
0	1460	33.730248226882	1
0	1475	34.07897105926	1
0	1485	34.280425609392	1
0	1488	34.311311423923	1
0	1490	34.363318153115	1
0	1497	34.385799525671	1
0	1519	35.145465967606	1
0	1531	35.419338714546	1
0	1542	35.705459671499	1
0	1545	35.805419173217	1
0	1557	36.000106155942	1
0	1567	36.112323536979	1
0	1579	36.419373349857	1
0	1587	36.606068890085	1
0	1592	36.682661687986	1
0	1603	36.820890612367	1
0	1619	37.474276896418	1
0	1632	37.902672145422	1
0	1643	38.359559836511	1
0	1652	38.571300416868	1
0	1663	38.895248893019	1
0	1676	39.427639595129	1
0	1682	39.591236600472	1
0	1695	39.994351607594	1
0	1708	40.455804994457	1
0	1714	40.563471964317	1
0	1727	40.904852195282	1
0	1738	41.275265882682	1
0	1749	41.545208047149	1
0	1762	42.112245891338	1
0	1773	42.725525984812	1
0	1782	43.11065596902	1
0	1793	43.361708122376	1
0	1796	43.445020062769	1
0	1803	43.558923216297	1
0	1820	44.092996988427	1
0	1831	44.294209247192	1
0	1837	44.491284029658	1
0	1845	44.545941398978	1
0	1860	44.98603874843	1
0	1863	45.039359423661	1
0	1870	45.105902201995	1
0	1885	45.429257739242	1
0	1888	45.485944513369	1
0	1903	45.870150231472	1
0	1917	46.664681091427	1
0	1928	47.559448550951	1
0	1937	47.922720346064	1
0	1950	48.398624644522	1
0	1953	48.450765622714	1
0	1963	48.646858932072	1
0	1973	48.805286836597	1
0	1976	48.828807059121	1
0	1985	49.003362174218	1
0	1995	49.171146593038	1
0	2002	49.218441719283	1
0	2019	49.875993099945	1
0	2022	49.964593501644	1
0	2037	50.351935922158	1
0	2042	50.430205492615	1
0	2051	50.596148330896	1
0	2067	51.141014915604	1
0	2075	51.292885465286	1
0	2084	51.467805227099	1
0	2089	51.529275812283	1
0	2102	51.741572668345	1
0	2107	51.790337265515	1
0	2112	51.895134320772	1
0	2114	51.914253000088	1
0	2132	52.149428132215	1
0	2146	52.706745973327	1
0	2149	52.738879766267	1
0	2162	52.994415263199	1
0	2165	53.00433917509	1
0	2169	53.043015475189	1
0	2196	55.696856139039	1
0	2202	55.83051916453	1
0	2208	55.908495013124	1
0	2210	55.921083953217	1
0	2215	55.995418212223	1
0	2221	56.054150567111	1
0	2229	56.135113165541	1
0	2245	56.463103029274	1
0	2252	56.535604725928	1
0	2265	56.798863521412	1
0	2279	57.368915431092	1
0	2287	57.531906327167	1
0	2301	57.982732255101	1
0	2304	58.06305248694	1
0	2311	58.102601096336	1
0	2323	58.366649638399	1
0	2341	59.714431922552	1
0	2352	60.497890513353	1
0	2358	60.607799507232	1
0	2367	60.75076233315	1
0	2377	60.948800292105	1
0	2382	60.966978588266	1
0	2389	61.136206289048	1
0	2395	61.151072539101	1
0	2397	61.18578990969	1
0	2399	61.207416698827	1
0	2425	61.699040400632	1
0	2441	62.501935963295	1
0	2444	62.563538336755	1
0	2456	62.758084373968	1
0	2470	63.192873369363	1
0	2483	63.64708489231	1
0	2494	65.238897198979	1
0	2497	65.285489696244	1
0	2513	66.471474827627	1
0	2516	66.546867707027	1
0	2521	66.589763488813	1
0	2536	66.884159107852	1
0	2542	67.043193015617	1
0	2558	67.608003376285	1
0	2569	67.915267494847	1
0	2577	68.019407281268	1
0	2586	68.123288386647	1
0	2589	68.140003207858	1
0	2604	68.438302630573	1
0	2618	68.937297806709	1
0	2629	69.282284165931	1
0	2634	69.368214131207	1
0	2648	69.792829724733	1
0	2659	70.130641079368	1
0	2672	70.601152874341	1
0	2675	70.644156685039	1
0	2677	70.665429365933	1
0	2691	70.962260274828	1
0	2698	71.054188371718	1
0	2713	71.514561789592	1
0	2723	71.720367935673	1
0	2735	72.045078105612	1
0	2748	72.676074445622	1
0	2754	72.787297842661	1
0	2757	72.812220147933	1
0	2773	73.136507072612	1
0	2779	73.266683551004	1
0	2784	73.304234416445	1
0	2797	73.497533054852	1
0	2802	73.591686555081	1
0	2815	73.853837456587	1
0	2823	73.989839470862	1
0	2830	74.082591491121	1
0	2845	74.606915559843	1
0	2857	75.067185193648	1
0	2862	75.108917414148	1
0	2873	75.280542223237	1
0	2887	75.810868219566	1
0	2898	76.114997424486	1
0	2911	76.516065637813	1
0	2920	76.800053104001	1
0	2933	77.690608595422	1
0	2942	77.934753910014	1
0	2948	78.049352917863	1
0	2965	79.580590460031	1
0	2968	79.637924811374	1
0	2973	79.681408167813	1
0	2975	79.750205053182	1
0	2994	80.178269472893	1
0	3008	80.618135340554	1
0	3011	80.708197919503	1
0	3029	81.547934692313	1
0	3032	81.575925180188	1
0	3044	81.875928678133	1
0	3049	81.960253267499	1
0	3058	82.124938275313	1
0	3072	82.437533702848	1
0	3075	82.522119617176	1
0	3082	82.5902149813	1
0	3098	83.03868724149	1
0	3108	83.337742692072	1
0	3122	83.852024805722	1
0	3125	83.858489646383	1
0	3127	83.88265360496	1
0	3147	84.542164029022	1
0	3150	84.602984480928	1
0	3157	84.715760825637	1
0	3174	85.161353382029	1
0	3187	85.563784529337	1
0	3198	86.035253547994	1
0	3207	86.353098673517	1
0	3212	86.447556171339	1
0	3224	86.678190302316	1
0	3229	86.760071508815	1
0	3234	86.82588751106	1
0	3242	86.966774960752	1
0	3252	87.113336379489	1
0	3262	87.30716794331	1
0	3276	87.564725329317	1
0	3279	87.589837040985	1
0	3294	87.971092826258	1
0	3306	88.424459368252	1
0	3318	88.819140806713	1
0	3326	89.010427773088	1
0	3335	89.130311549019	1
0	3349	89.503189513054	1
0	3357	89.634216625124	1
0	3360	89.69982947923	1
0	3365	89.727746572597	1
0	3388	90.567952579129	1
0	3394	90.71246237598	1
0	3407	91.060065390255	1
0	3420	91.541497804724	1
0	3426	91.646551337227	1
0	3441	92.518478581698	1
0	3452	93.26015619971	1
0	3461	93.578532685249	1
0	3472	93.879952734717	1
0	3480	94.011899624386	1
0	3493	94.470923236882	1
0	3498	94.508389688185	1
0	3500	94.520030891881	1
0	3502	94.525616787738	1
0	3504	94.539929154388	1
0	3509	94.602807297659	1
0	3526	94.942221655474	1
0	3532	95.052525436756	1
0	3540	95.143373524882	1
0	3560	95.525058819397	1
0	3568	95.706881889551	1
0	3576	95.856069102937	1
0	3581	95.898547544199	1
0	3592	96.060558382598	1
0	3612	97.014196409323	1
0	3620	97.195761645244	1
0	3630	97.370427762315	1
0	3640	97.485334284043	1
0	3654	97.926858789548	1
0	3657	98.002956460638	1
0	3659	98.022186925815	1
0	3678	98.428106596616	1
0	3686	98.591067336265	1
0	3702	99.168648087349	1
0	3705	99.184723918916	1
0	3712	99.296719403061	1
0	3729	99.835781537203	1
0	3742	100.374462219925	1
0	3748	100.522024223146	1
0	3754	100.613390912985	1
0	3759	100.631144083978	1
0	3761	100.71455445315	1
0	3767	100.734449566147	1
0	3771	100.794297760483	1
0	3783	100.987774655543	1
0	3793	101.124071344674	1
0	3795	101.143714858974	1
0	3799	101.177332400051	1
0	3805	101.228097884649	1
0	3837	102.465843861426	1
0	3845	102.609177451562	1
0	3853	102.751262134632	1
0	3863	102.923442796684	1
0	3875	103.163180571558	1
0	3887	103.382034901694	1
0	3903	104.348764508913	1
0	3912	104.590998034012	1
0	3915	104.677804577218	1
0	3927	104.794431614904	1
0	3935	104.945858488294	1
0	3947	105.186924678513	1
0	3955	105.313856000215	1
0	3958	105.356625645323	1
0	3975	105.745113599605	1
0	3980	105.825684903045	1
0	3993	106.065911614943	1
0	4005	106.466674044779	1
0	4015	106.690505801359	1
0	4018	106.732045807261	1
0	4020	106.765320607366	1
0	4027	106.828503279327	1
0	4029	106.836357679583	1
0	4035	106.905948481093	1
0	4037	106.971971897408	1
0	4049	107.135216756811	1
0	4051	107.138426142075	1
0	4053	107.138612591642	1
0	4061	107.218883518421	1
0	4063	107.226578580003	1
0	4099	107.938037796638	1
0	4109	108.092802098748	1
0	4114	108.173808375582	1
0	4121	108.218148056052	1
0	4123	108.237851560555	1
0	4139	108.522321221341	1
0	4146	108.602493836041	1
0	4161	108.998929779708	1
0	4179	110.066575257607	1
0	4189	110.282359546357	1
0	4197	110.419675121731	1
0	4209	110.716343426726	1
0	4221	111.04382452106	1
0	4227	111.16779154006	1
0	4241	111.406542579986	1
0	4244	111.418393115936	1
0	4246	111.468231662621	1
0	4257	111.612928173097	1
0	4271	111.953406096599	1
0	4279	112.069702036363	1
0	4287	112.183424313033	1
0	4301	112.410631002889	1
0	4311	112.785510244294	1
0	4316	112.821540826554	1
0	4331	113.215689960002	1
0	4334	113.280289686096	1
0	4347	113.531777546506	1
0	4359	113.953333547158	1
0	4371	114.310781387705	1
0	4374	114.387523274866	1
0	4389	114.64158756467	1
0	4395	114.773631467959	1
0	4409	115.039781239199	1
0	4423	115.726890637055	1
0	4426	115.727010369602	1
0	4430	115.807596852182	1
0	4441	115.99713197299	1
0	4447	116.036380223055	1
0	4449	116.08554787672	1
0	4465	116.388230209188	1
0	4479	116.754709330897	1
0	4489	116.964002145664	1
0	4492	116.970338080442	1
0	4505	117.206763998847	1
0	4508	117.223798883802	1
0	4510	117.234533810833	1
0	4517	117.333263046881	1
0	4525	117.468269545941	1
0	4537	117.687495042511	1
0	4539	117.688563934477	1
0	4545	117.715064590684	1
0	4547	117.785832923758	1
0	4559	117.96008324498	1
0	4577	118.2661749013	1
0	4591	118.669782783681	1
0	4594	118.685661736518	1
0	4596	118.703903827164	1
0	4601	118.791184529337	1
0	4623	119.24762231456	1
0	4641	120.355694515378	1
0	4653	120.648713076002	1
0	4669	121.53575114684	1
0	4672	121.568893420445	1
0	4679	121.733264303758	1
0	4690	121.923939499798	1
0	4704	122.256600859447	1
0	4716	122.72179301917	1
0	4727	122.972156997421	1
0	4738	123.212312122983	1
0	4744	123.369008330053	1
0	4761	124.670672093758	1
0	4772	125.157015921587	1
0	4778	125.258701016175	1
0	4781	125.306043072221	1
0	4799	125.770959998699	1
0	4812	126.211653786844	1
0	4818	126.341989464361	1
0	4821	126.352734482261	1
0	4839	126.838295479081	1
0	4852	127.342559984058	1
0	4861	127.740368653864	1
0	4872	128.022118962738	1
0	4875	128.050059061385	1
0	4882	128.197667953604	1
0	4897	128.511817216771	1
0	4907	128.790175294449	1
0	4921	129.23297345526	1
0	4927	129.387190651109	1
0	4940	129.638999851244	1
0	4951	130.017535446251	1
0	4959	130.121540276482	1
0	4962	130.151643047137	1
0	4964	130.204719696585	1
0	4976	130.382118845629	1
0	4988	130.591016372388	1
0	5004	131.103952627053	1
0	5007	131.110803616199	1
0	5024	131.766946768794	1
0	5027	131.780554220919	1
0	5031	131.842777382406	1
0	5049	132.26634835774	1
0	5052	132.338913138983	1
0	5069	132.772144627084	1
0	5082	133.358028884838	1
0	5085	133.363851920389	1
0	5090	133.469829466683	1
0	5092	133.521570440416	1
0	5094	133.536208909252	1
0	5111	133.816676867302	1
0	5125	134.130393997215	1
0	5139	134.727860451712	1
0	5147	134.86164808274	1
0	5161	135.176269145761	1
0	5172	135.508581529262	1
0	5183	135.897608257539	1
0	5191	136.059695519633	1
0	5194	136.082882795594	1
0	5202	136.256452526389	1
0	5214	136.397649032272	1
0	5224	136.532782127035	1
0	5240	137.147242503019	1
0	5243	137.233035874948	1
0	5259	137.594180189917	1
0	5272	138.171609992701	1
0	5275	138.229164481659	1
0	5287	138.505413320589	1
0	5290	138.571334379374	1
0	5305	138.960110097182	1
0	5319	139.526936271061	1
0	5330	140.092152012796	1
0	5339	140.431922580268	1
0	5344	140.503906086306	1
0	5354	140.639323020067	1
0	5370	141.270195213436	1
0	5381	142.191851646123	1
0	5392	142.688075622667	1
0	5403	143.591847476731	1
0	5409	143.768195570835	1
0	5412	143.782788335655	1
0	5426	143.992564151853	1
0	5434	144.186626872116	1
0	5441	144.217149637925	1
0	5456	144.714552788915	1
0	5468	145.07354565358	1
0	5479	145.297958266072	1
0	5482	145.345513940086	1
0	5500	145.913924948367	1
0	5506	146.104729412901	1
0	5515	146.303429178819	1
0	5522	146.337223021667	1
0	5537	146.79889506374	1
0	5540	146.817823133214	1
0	5552	147.068394607689	1
0	5564	147.303174083977	1
0	5576	147.694757613339	1
0	5584	147.863684218697	1
0	5587	147.874804433898	1
0	5601	148.155640797873	1
0	5606	148.235187612821	1
0	5621	148.626368506505	1
0	5631	148.874150466457	1
0	5645	149.888231980313	1
0	5654	150.115377492967	1
0	5657	150.137334241286	1
0	5675	151.153115064541	1
0	5684	151.402498471616	1
0	5695	151.64237353664	1
0	5706	151.857454474644	1
0	5717	152.069108113522	1
0	5728	152.332022760226	1
0	5739	152.641454035248	1
0	5747	152.837320195524	1
0	5753	152.934274890159	1
0	5766	153.138028683467	1
0	5774	153.27232074557	1
0	5788	153.779611737008	1
0	5799	153.991243879989	1
0	5805	154.141619179859	1
0	5810	154.190927359006	1
0	5822	154.382343698384	1
0	5836	154.682714729083	1
0	5846	154.976288865369	1
0	5854	155.125674910437	1
0	5857	155.149113881234	1
0	5866	155.282054307745	1
0	5874	155.423429904052	1
0	5894	156.274206319524	1
0	5897	156.301139993061	1
0	5899	156.315020016768	1
0	5901	156.352089889452	1
0	5915	156.672521411505	1
0	5917	156.673053367251	1
0	5935	156.920285851167	1
0	5940	156.979123552954	1
0	5947	157.110434927733	1
0	5953	157.171474785621	1
0	5955	157.216435807114	1
0	5967	157.397979713517	1
0	5975	157.511050334692	1
0	5989	157.722163953565	1
0	5992	157.796443095331	1
0	6007	158.23070577464	1
0	6017	158.464410947558	1
0	6025	158.631140096865	1
0	6043	159.412163111953	1
0	6057	159.967309788702	1
0	6071	160.502498941514	1
0	6077	160.628155767754	1
0	6088	160.873702240045	1
0	6100	161.214944526814	1
0	6111	161.492463543982	1
0	6122	161.693626988911	1
0	6135	162.262274269193	1
0	6144	162.506699529261	1
0	6155	162.792942191532	1
0	6158	162.871754160366	1
0	6170	163.040611091351	1
0	6186	163.734138590019	1
0	6195	164.080532691808	1
0	6206	164.447576658971	1
0	6211	164.516127903127	1
0	6216	164.555465401704	1
0	6218	164.557941832801	1
0	6229	164.75068354356	1
0	6231	164.77236516363	1
0	6259	166.139719223698	1
0	6265	166.315611786233	1
0	6268	166.328186898632	1
0	6276	166.497924665514	1
0	6284	166.588102519085	1
0	6298	166.842565985166	1
0	6310	167.180117711461	1
0	6320	167.393980158787	1
0	6323	167.404019423181	1
0	6325	167.423435470472	1
0	6342	167.766702123504	1
0	6350	167.89285593373	1
0	6362	168.10584552319	1
0	6370	168.227896504185	1
0	6384	168.55681417398	1
0	6390	168.66018056908	1
0	6400	168.860270476542	1
0	6410	169.047384657989	1
0	6428	169.748264109058	1
0	6434	169.938555759427	1
0	6445	170.044871343195	1
0	6455	170.238246711848	1
0	6467	170.451851351194	1
0	6479	170.768337830453	1
0	6482	170.781366496658	1
0	6487	170.913093912886	1
0	6500	171.114635279016	1
0	6512	171.344207574602	1
0	6520	171.480127845372	1
0	6523	171.489205203793	1
0	6546	172.510231316214	1
0	6552	172.643677694253	1
0	6567	173.371559107595	1
0	6578	173.986309592334	1
0	6581	174.023515644374	1
0	6595	174.578591115963	1
0	6600	174.589217708508	1
0	6614	175.07292005904	1
0	6617	175.105070256693	1
0	6624	175.204532435675	1
0	6626	175.258061965828	1
0	6633	175.280609786598	1
0	6649	175.604419908581	1
0	6659	175.709315708453	1
0	6669	175.905619240233	1
0	6672	175.907138105405	1
0	6681	176.098527435426	1
0	6687	176.111604946334	1
0	6693	176.26776080726	1
0	6713	177.045515016015	1
0	6716	177.047194197538	1
0	6731	177.427898000525	1
0	6739	177.552487218783	1
0	6749	177.746483987949	1
0	6769	179.45848778858	1
0	6780	180.981312160958	1
0	6791	181.410416540837	1
0	6802	181.959461796016	1
0	6811	182.17212307442	1
0	6814	182.193728332837	1
0	6816	182.248411333852	1
0	6821	182.310742681562	1
0	6844	182.943646099493	1
0	6858	183.419788002537	1
0	6864	183.557763824915	1
0	6879	184.096479675601	1
0	6888	184.337933488069	1
0	6896	184.501975223274	1
0	6902	184.558734145607	1
0	6907	184.623169330342	1
0	6913	184.722568023931	1
0	6929	185.087552736599	1
0	6937	185.193314986721	1
0	6940	185.209000329811	1
0	6947	185.334529524677	1
0	6951	185.380841475021	1
0	6953	185.386462160486	1
0	6959	185.476654257461	1
0	6977	185.746611991622	1
0	6979	185.75607301495	1
0	6985	185.802652402752	1
0	7017	187.403955168079	1
0	7028	187.635099071503	1
0	7039	187.887514201899	1
0	7050	188.129134271831	1
0	7056	188.267634738912	1
0	7071	188.566887965294	1
0	7077	188.705915751625	1
0	7085	188.792219249121	1
0	7096	188.977533024155	1
0	7101	189.063872114463	1
0	7116	189.400633863324	1
0	7126	189.752798995626	1
0	7140	190.191309669578	1
0	7146	190.314157019537	1
0	7155	190.460704929614	1
0	7158	190.50206020226	1
0	7171	190.670035812227	1
0	7187	191.259203490689	1
0	7190	191.344113935286	1
0	7192	191.347406221225	1
0	7194	191.354412899318	1
0	7220	191.898366675362	1
0	7223	191.925537324499	1
0	7228	192.011955807996	1
0	7236	192.166416583481	1
0	7244	192.286662522124	1
0	7254	192.405104989791	1
0	7274	193.363930082355	1
0	7285	193.604574205163	1
0	7291	193.748049170283	1
0	7308	194.297186931985	1
0	7317	194.611778317825	1
0	7328	194.91518110063	1
0	7336	195.048100979971	1
0	7339	195.059349342518	1
0	7357	195.671355582923	1
0	7360	195.713756110454	1
0	7374	196.031543036793	1
0	7377	196.063955571947	1
0	7384	196.227769998941	1
0	7400	196.539015953439	1
0	7403	196.561011183563	1
0	7410	196.678536938398	1
0	7416	196.791532238104	1
0	7428	196.998958310061	1
0	7438	197.167592026494	1
0	7454	197.834636635852	1
0	7459	197.918107995284	1
0	7474	198.27847514011	1
0	7480	198.469711406739	1
0	7491	198.62893516302	1
0	7498	198.687755351055	1
0	7500	198.69903482528	1
0	7509	198.869502362635	1
0	7521	199.049079429211	1
0	7531	199.236776254948	1
0	7545	199.511067428683	1
0	7555	199.790791314129	1
0	7558	199.814034321598	1
1	2	0.200070597723	1
1	5	0.218408207214	1
1	17	0.526285168524	1
1	29	0.984350925737	1
1	34	1.070292277811	1
1	39	1.102628343184	1
1	46	1.281388417523	1
1	60	1.491980863331	1
1	74	2.050588574896	1
1	82	2.194234993599	1
1	97	2.760781629165	1
1	100	2.765513124701	1
1	102	2.799063261954	2
1	104	2.809433069138	3
1	109	2.867492664755	3
1	111	2.938710272538	4
1	113	2.951920001958	5
1	120	2.976475266317	5
1	126	3.121791686831	5
1	144	3.418508060885	3
1	146	3.42609096082	4
1	152	3.465362667007	4
1	160	3.617947383406	4
1	172	3.768852762458	3
1	184	4.030697648249	2
1	190	4.091399368028	2
1	198	4.17300068715	2
1	204	4.282202897155	2
1	222	4.56415260011	1
1	230	4.733784207306	1
1	242	4.957210395792	1
1	258	5.568539933673	1
1	261	5.574608466282	1
1	274	5.93753157867	1
1	284	6.142126475072	1
1	302	7.051181822982	1
1	305	7.126205671318	1
1	316	7.254897618262	1
1	326	7.388976726159	1
1	338	7.5901483842	1
1	341	7.673501395332	1
1	348	7.764952167598	1
1	362	8.060291388003	1
1	372	8.28113837413	1
1	380	8.42629563478	1
1	385	8.506663993214	1
1	390	8.549321853723	1
1	398	8.700884365186	1
1	410	8.897556054329	1
1	424	9.251914860797	1
1	436	9.630804734066	1
1	448	10.056152916073	1
1	451	10.147604735197	1
1	458	10.222066556684	1
1	464	10.284810212417	1
1	482	10.843693987501	1
1	490	10.96643799551	1
1	502	11.28327446358	1
1	518	11.971995666788	1
1	521	11.977203153505	1
1	540	12.909580894458	1
1	543	12.94807778886	1
1	557	13.227055815649	1
1	562	13.325429887343	1
1	577	13.908263756833	1
1	590	14.322041566039	1
1	601	14.789338134211	1
1	607	14.916624458344	1
1	616	15.035325861581	1
1	624	15.173542469944	1
1	629	15.197729952009	1
1	636	15.331218837649	1
1	652	15.596122674052	1
1	662	15.982901064497	1
1	672	16.186922364233	1
1	684	16.499483928007	1
1	692	16.611667687697	1
1	695	16.61751493032	1
1	697	16.681255574868	2
1	704	16.776119859647	2
1	712	16.906557765689	2
1	728	17.11338179742	1
1	738	17.271601980412	1
1	752	17.616339764318	1
1	755	17.694755799905	1
1	768	17.929916810201	1
1	773	18.016171443998	1
1	778	18.073007826087	1
1	786	18.225985537017	1
1	800	18.491048080085	1
1	812	18.983531530622	1
1	824	19.255216985696	1
1	834	19.47584207707	1
1	846	19.987967467776	1
1	851	20.071307490074	1
1	866	20.488111002695	1
1	869	20.569535750162	1
1	876	20.686686793654	1
1	888	20.838255868013	1
1	891	20.857800344016	1
1	895	20.915282706179	2
1	914	21.272665116589	1
1	917	21.328882224322	1
1	919	21.345355697933	2
1	930	21.525760394136	1
1	946	21.985537888396	1
1	951	22.008355551901	1
1	964	22.303284360988	1
1	972	22.468495762419	1
1	982	22.616098487024	1
1	990	22.728521795709	1
1	1000	22.841009488796	1
1	1012	23.148491700494	1
1	1020	23.329958172	1
1	1034	23.673298976957	1
1	1042	23.826113448703	1
1	1054	24.119792140239	1
1	1066	24.532829219995	1
1	1078	24.824964883136	1
1	1081	24.920018241308	1
1	1092	25.036959822296	1
1	1106	25.501093679377	1
1	1116	25.776850287333	1
1	1124	25.944839243104	1
1	1134	26.048660786382	1
1	1144	26.242857992977	1
1	1156	26.455480150935	1
1	1168	26.892839228959	1
1	1173	26.991399003362	1
1	1182	27.175728288762	1
1	1192	27.322990427316	1
1	1195	27.36145291793	1
1	1199	27.377328729917	2
1	1206	27.467307209269	2
1	1212	27.536798046267	2
1	1232	27.948093692196	1
1	1250	28.838458196609	1
1	1253	28.93468823685	1
1	1260	29.000219177394	1
1	1262	29.005582738762	2
1	1279	29.299572872793	1
1	1289	29.464233130277	1
1	1301	29.727029509183	1
1	1304	29.733622245056	1
1	1319	30.05540572456	1
1	1325	30.231495200097	1
1	1335	30.392626651369	1
1	1351	31.017977207799	1
1	1363	31.244973399254	1
1	1366	31.302945737794	1
1	1368	31.320275064167	2
1	1390	31.970296481358	1
1	1393	31.989128851666	1
1	1398	32.070327095201	1
1	1402	32.125793195526	2
1	1409	32.174208229146	2
1	1411	32.215385912364	3
1	1443	33.374323895268	1
1	1446	33.400693010329	1
1	1458	33.695635540621	1
1	1461	33.730248226882	1
1	1476	34.07897105926	1
1	1486	34.280425609392	1
1	1489	34.311311423923	1
1	1491	34.363318153115	2
1	1498	34.385799525671	2
1	1520	35.145465967606	1
1	1532	35.419338714546	1
1	1543	35.705459671499	1
1	1546	35.805419173217	1
1	1558	36.000106155942	1
1	1568	36.112323536979	1
1	1580	36.419373349857	1
1	1588	36.606068890085	1
1	1593	36.682661687986	1
1	1604	36.820890612367	1
1	1620	37.474276896418	1
1	1633	37.902672145422	1
1	1644	38.359559836511	1
1	1653	38.571300416868	1
1	1664	38.895248893019	1
1	1677	39.427639595129	1
1	1683	39.591236600472	1
1	1696	39.994351607594	1
1	1709	40.455804994457	1
1	1715	40.563471964317	1
1	1728	40.904852195282	1
1	1739	41.275265882682	1
1	1750	41.545208047149	1
1	1763	42.112245891338	1
1	1774	42.725525984812	1
1	1783	43.11065596902	1
1	1794	43.361708122376	1
1	1797	43.445020062769	1
1	1804	43.558923216297	1
1	1821	44.092996988427	1
1	1832	44.294209247192	1
1	1838	44.491284029658	1
1	1846	44.545941398978	1
1	1861	44.98603874843	1
1	1864	45.039359423661	1
1	1871	45.105902201995	1
1	1886	45.429257739242	1
1	1889	45.485944513369	1
1	1904	45.870150231472	1
1	1918	46.664681091427	1
1	1929	47.559448550951	1
1	1938	47.922720346064	1
1	1951	48.398624644522	1
1	1954	48.450765622714	1
1	1964	48.646858932072	1
1	1974	48.805286836597	1
1	1977	48.828807059121	1
1	1986	49.003362174218	1
1	1996	49.171146593038	1
1	2003	49.218441719283	1
1	2020	49.875993099945	1
1	2023	49.964593501644	1
1	2038	50.351935922158	1
1	2043	50.430205492615	1
1	2052	50.596148330896	1
1	2068	51.141014915604	1
1	2076	51.292885465286	1
1	2085	51.467805227099	1
1	2090	51.529275812283	1
1	2103	51.741572668345	1
1	2108	51.790337265515	1
1	2113	51.895134320772	1
1	2115	51.914253000088	2
1	2133	52.149428132215	1
1	2147	52.706745973327	1
1	2150	52.738879766267	1
1	2163	52.994415263199	1
1	2166	53.00433917509	1
1	2170	53.043015475189	2
1	2197	55.696856139039	1
1	2203	55.83051916453	1
1	2209	55.908495013124	1
1	2211	55.921083953217	2
1	2216	55.995418212223	2
1	2222	56.054150567111	2
1	2230	56.135113165541	2
1	2246	56.463103029274	1
1	2253	56.535604725928	1
1	2266	56.798863521412	1
1	2280	57.368915431092	1
1	2288	57.531906327167	1
1	2302	57.982732255101	1
1	2305	58.06305248694	1
1	2312	58.102601096336	1
1	2324	58.366649638399	1
1	2342	59.714431922552	1
1	2353	60.497890513353	1
1	2359	60.607799507232	1
1	2368	60.75076233315	1
1	2378	60.948800292105	1
1	2383	60.966978588266	1
1	2390	61.136206289048	1
1	2396	61.151072539101	1
1	2398	61.18578990969	2
1	2400	61.207416698827	3
1	2426	61.699040400632	1
1	2442	62.501935963295	1
1	2445	62.563538336755	1
1	2457	62.758084373968	1
1	2471	63.192873369363	1
1	2484	63.64708489231	1
1	2495	65.238897198979	1
1	2498	65.285489696244	1
1	2514	66.471474827627	1
1	2517	66.546867707027	1
1	2522	66.589763488813	1
1	2537	66.884159107852	1
1	2543	67.043193015617	1
1	2559	67.608003376285	1
1	2570	67.915267494847	1
1	2578	68.019407281268	1
1	2587	68.123288386647	1
1	2590	68.140003207858	1
1	2605	68.438302630573	1
1	2619	68.937297806709	1
1	2630	69.282284165931	1
1	2635	69.368214131207	1
1	2649	69.792829724733	1
1	2660	70.130641079368	1
1	2673	70.601152874341	1
1	2676	70.644156685039	1
1	2678	70.665429365933	2
1	2692	70.962260274828	1
1	2699	71.054188371718	1
1	2714	71.514561789592	1
1	2724	71.720367935673	1
1	2736	72.045078105612	1
1	2749	72.676074445622	1
1	2755	72.787297842661	1
1	2758	72.812220147933	1
1	2774	73.136507072612	1
1	2780	73.266683551004	1
1	2785	73.304234416445	1
1	2798	73.497533054852	1
1	2803	73.591686555081	1
1	2816	73.853837456587	1
1	2824	73.989839470862	1
1	2831	74.082591491121	1
1	2846	74.606915559843	1
1	2858	75.067185193648	1
1	2863	75.108917414148	1
1	2874	75.280542223237	1
1	2888	75.810868219566	1
1	2899	76.114997424486	1
1	2912	76.516065637813	1
1	2921	76.800053104001	1
1	2934	77.690608595422	1
1	2943	77.934753910014	1
1	2949	78.049352917863	1
1	2966	79.580590460031	1
1	2969	79.637924811374	1
1	2974	79.681408167813	1
1	2976	79.750205053182	2
1	2995	80.178269472893	1
1	3009	80.618135340554	1
1	3012	80.708197919503	1
1	3030	81.547934692313	1
1	3033	81.575925180188	1
1	3045	81.875928678133	1
1	3050	81.960253267499	1
1	3059	82.124938275313	1
1	3073	82.437533702848	1
1	3076	82.522119617176	1
1	3083	82.5902149813	1
1	3099	83.03868724149	1
1	3109	83.337742692072	1
1	3123	83.852024805722	1
1	3126	83.858489646383	1
1	3128	83.88265360496	2
1	3148	84.542164029022	1
1	3151	84.602984480928	1
1	3158	84.715760825637	1
1	3175	85.161353382029	1
1	3188	85.563784529337	1
1	3199	86.035253547994	1
1	3208	86.353098673517	1
1	3213	86.447556171339	1
1	3225	86.678190302316	1
1	3230	86.760071508815	1
1	3235	86.82588751106	1
1	3243	86.966774960752	1
1	3253	87.113336379489	1
1	3263	87.30716794331	1
1	3277	87.564725329317	1
1	3280	87.589837040985	1
1	3295	87.971092826258	1
1	3307	88.424459368252	1
1	3319	88.819140806713	1
1	3327	89.010427773088	1
1	3336	89.130311549019	1