version 3
run FeedbackVersion-14-20240511-20:45:11-11876
attr configname FeedbackVersion
attr datetime 20240511-20:45:11
attr datetimef 20240511-204511
attr experiment FeedbackVersion
attr inifile omnetpp.ini
attr iterationvars $genInterval=0.8
attr iterationvarsd genInterval=0.8
attr iterationvarsf genInterval=0.8-
attr measurement $genInterval=0.8
attr network NetworkFV
attr processid 11876
attr repetition 0
attr replication #0
attr resultdir results
attr runnumber 14
attr seedset 14
itervar genInterval 0.8
config network NetworkFV
config sim-time-limit 200s
config NetworkFV.nodeTx.gen.generationInterval exponential(0.8)
config NetworkFV.nodeTx.gen.packetByteSize 12500
config NetworkFV.queueOne.bufferSize 200
config NetworkFV.nodeRx.queue.bufferSize 200
config NetworkFV.nodeTx.queue.bufferSize 2000000
config NetworkFV.queueZero.bufferSize 200

vector 0 NetworkFV.nodeRx.queue PacketsLost ETV
vector 1 NetworkFV.nodeRx.queue PacketsAsked ETV
vector 2 NetworkFV.queueOne bufferSize ETV
vector 3 NetworkFV.nodeTx.gen packetGen ETV
vector 4 NetworkFV.nodeTx.queue BufferSize ETV
vector 5 NetworkFV.nodeTx.queue PacketsSent ETV
vector 6 NetworkFV.queueZero bufferSize ETV
vector 7 NetworkFV.nodeRx.queue BufferSize ETV
vector 8 NetworkFV.nodeRx.sink Delay ETV
vector 9 NetworkFV.nodeRx.sink packetUsed ETV
0	1	0	1
0	6	0.2	1
0	7	0.4	1
0	11	0.6	1
0	21	1.0002	1
0	22	1.2004	1
0	23	1.4006	1
0	28	1.6008	1
0	29	1.801	1
0	30	2.0012	1
0	31	2.2014	1
0	32	2.4016	1
0	33	2.6018	1
0	41	2.802	1
0	46	3.0022	1
0	51	3.2024	1
0	56	3.4026	1
0	61	3.6028	1
0	62	3.803	1
0	69	4.0032	1
0	77	4.2034	1
0	80	4.4036	1
0	81	4.6038	1
0	88	4.804	1
0	99	5.2044	1
0	100	5.4046	1
0	101	5.6048	1
0	102	5.805	1
0	103	6.0052	1
0	104	6.2054	1
0	115	6.4056	1
0	123	6.6058	1
0	137	6.806	1
0	145	7.0062	1
0	154	7.2064	1
0	168	7.6068	1
0	169	7.807	1
0	170	8.0072	1
0	171	8.2074	1
0	172	8.4076	1
0	173	8.6078	1
0	178	8.808	1
0	179	9.0082	1
0	180	9.2084	1
0	181	9.4086	1
0	182	9.6088	1
0	186	9.809	1
1	1	0	2
1	23	1.4006	1
1	33	2.6018	0
1	41	2.802	0
1	46	3.0022	0
1	51	3.2024	0
1	56	3.4026	1
1	71	4.003915123244	1
1	90	4.864812548188	2
1	104	6.2054	1
1	117	6.499625455245	1
1	139	6.864546937282	1
1	159	7.296634697679	2
1	173	8.6078	1
1	186	9.809	0
2	2	0	1
2	24	1.4006	1
2	34	2.6018	1
2	42	2.802	1
2	47	3.0022	1
2	52	3.2024	1
2	57	3.4026	1
2	73	4.003915123244	1
2	92	4.864812548188	1
2	105	6.2054	1
2	119	6.499625455245	1
2	141	6.864546937282	1
2	161	7.296634697679	1
2	174	8.6078	1
2	187	9.809	1
3	8	0.577144061132	1
3	38	2.616889028598	1
3	63	3.803715123244	1
3	82	4.664612548188	1
3	109	6.299425455245	1
3	124	6.664346937282	1
3	127	6.670810537485	1
3	134	6.799889861502	1
3	148	7.096434697679	1
3	155	7.276236325065	1
3	183	9.80479245473	1
3	197	10.00560934713	1
3	205	10.581394018442	1
3	210	10.889248463287	1
3	214	11.195762669922	1
3	219	11.557958715697	1
3	225	12.177791545066	1
3	231	12.797299317998	1
3	235	12.997356559827	1
3	243	13.912473800344	1
3	253	15.226378949746	1
3	259	15.838867776699	1
3	263	16.174017691392	1
3	267	16.401494246992	1
3	274	17.020787163927	1
3	290	19.733636015003	1
3	293	19.738348901481	1
3	297	19.869703784384	1
3	304	20.764312992011	1
3	308	20.962015813681	1
3	312	21.150618253607	1
3	317	21.429704513629	1
3	330	23.58688952648	1
3	335	23.925788345056	1
3	340	24.300825104053	1
3	362	28.099600402228	1
3	370	29.216414138528	1
3	374	29.421965482337	1
3	383	30.574190920471	1
3	401	33.554419097611	1
3	412	35.189675284464	1
3	416	35.284532702401	1
3	419	35.377859699559	1
3	423	35.529824122839	1
3	427	35.815269204393	1
3	437	37.100719132249	1
3	442	37.616061164059	1
3	455	39.636360599476	1
3	463	40.530441891067	1
3	469	41.141835484196	1
3	473	41.380121012559	1
3	477	41.461390880138	1
3	484	42.427645220433	1
3	488	42.527753299401	1
3	495	43.383773308505	1
3	499	43.630166692764	1
3	503	43.790888634848	1
3	511	44.804887233042	1
3	516	45.11584795785	1
3	520	45.26529939022	1
3	531	47.013407405242	1
3	551	50.264217389096	1
3	554	50.33384030696	1
3	557	50.355576502881	1
3	566	51.453692058457	1
3	569	51.462997672772	1
3	572	51.514500540862	1
3	585	53.488948803025	1
3	593	54.540816052759	1
3	605	56.26051530978	1
3	613	57.345939037042	1
3	616	57.413893044821	1
3	621	57.833178203118	1
3	629	58.78774646114	1
3	651	62.590960702332	1
3	659	63.527857168255	1
3	664	64.00924161958	1
3	684	67.288336965082	1
3	687	67.456793837596	1
3	695	68.307188404267	1
3	699	68.653819058801	1
3	703	68.822232474303	1
3	711	69.825916871506	1
3	721	71.177967966825	1
3	726	71.531798263843	1
3	731	71.891967452521	1
3	734	71.934366248532	1
3	737	71.966910871281	1
3	741	72.270654029357	1
3	767	76.716937085434	1
3	797	82.100363775638	1
3	804	83.0123469835	1
3	809	83.283981977174	1
3	817	84.347434492627	1
3	822	84.843048381348	1
3	830	85.708947339819	1
3	838	86.772177499038	1
3	843	87.089129004996	1
3	857	89.390478487272	1
3	865	90.439327345143	1
3	869	90.593615397325	1
3	873	90.75605792425	1
3	877	90.947091584308	1
3	882	91.428777308256	1
3	886	91.542468479265	1
3	890	91.742354010086	1
3	894	91.929597490519	1
3	899	92.483776007459	1
3	924	96.840847618219	1
3	932	97.841203194925	1
3	936	98.067779050442	1
3	940	98.22713670646	1
3	944	98.320411539925	1
3	956	100.228979201257	1
3	962	100.787217977209	1
3	965	100.87896119722	1
3	971	101.366185181859	1
3	979	102.415180869225	1
3	987	103.476063778047	1
3	996	104.642523286575	1
3	1003	105.418579387636	1
3	1008	105.742015812834	1
3	1015	106.518339313506	1
3	1023	107.642289182381	1
3	1027	107.772466820711	1
3	1036	108.946701808543	1
3	1042	109.564929665577	1
3	1048	110.30265617962	1
3	1052	110.405238616095	1
3	1059	111.128734715754	1
3	1062	111.26160248707	1
3	1074	113.040073134703	1
3	1080	113.518602503972	1
3	1083	113.59396086527	1
3	1088	114.042355086696	1
3	1095	114.755071085888	1
3	1103	115.813462595861	1
3	1110	116.566462663529	1
3	1113	116.62759743479	1
3	1117	116.906895976732	1
3	1122	117.168351283999	1
3	1129	118.053772039817	1
3	1133	118.198312393979	1
3	1144	119.873514170023	1
3	1150	120.441078750765	1
3	1156	121.11241214687	1
3	1163	121.804987493529	1
3	1170	122.624249036516	1
3	1177	123.438482507038	1
3	1181	123.62653555263	1
3	1185	123.819200499112	1
3	1194	124.995116513445	1
3	1199	125.427564036193	1
3	1203	125.641771909561	1
3	1209	126.144880130924	1
3	1217	127.158181824678	1
3	1220	127.227560454628	1
3	1225	127.618923111712	1
3	1231	128.294607075504	1
3	1235	128.342909037194	1
3	1239	128.550462140578	1
3	1242	128.607627073054	1
3	1245	128.636733990163	1
3	1255	129.970154439301	1
3	1271	132.641392615719	1
3	1276	132.940762598191	1
3	1279	133.002837786389	1
3	1284	133.41094760531	1
3	1292	134.459838467694	1
3	1296	134.718479261482	1
3	1302	135.277215988352	1
3	1307	135.649173071368	1
3	1310	135.72692015307	1
3	1321	137.159514344972	1
3	1327	137.753299164421	1
3	1340	139.871360223622	1
3	1345	140.326997323291	1
3	1350	140.553490314578	1
3	1356	141.188777833472	1
3	1359	141.200541966085	1
3	1373	143.387322094699	1
3	1388	145.77605487229	1
3	1412	150.022797167734	1
3	1424	151.936730509594	1
3	1432	152.805251209607	1
3	1435	152.868631265831	1
3	1440	153.218357231324	1
3	1446	153.829339732616	1
3	1451	154.291991171615	1
3	1458	155.151949201099	1
3	1467	156.347109426004	1
3	1485	159.335495270153	1
3	1492	160.128070998487	1
3	1498	160.636777721532	1
3	1501	160.719282274934	1
3	1511	162.010020270809	1
3	1518	162.853511480791	1
3	1524	163.546446644444	1
3	1541	166.315612500025	1
3	1556	168.641022116177	1
3	1560	168.857369553181	1
3	1567	169.730667928024	1
3	1572	170.129685118091	1
3	1576	170.176370666703	1
3	1579	170.245396894184	1
3	1583	170.528304180029	1
3	1593	171.916081988532	1
3	1598	172.236926832601	1
3	1602	172.510351739601	1
3	1606	172.649209216717	1
3	1610	172.79250871519	1
3	1613	172.806650789791	1
3	1616	172.949124842244	1
3	1626	174.271774294262	1
3	1630	174.532318179553	1
3	1635	174.829440856566	1
3	1638	174.835110919727	1
3	1647	176.022695573729	1
3	1655	177.12775886884	1
3	1659	177.252903350111	1
3	1670	178.79120865093	1
3	1673	178.975751612144	1
3	1687	181.055493276991	1
3	1691	181.326185890517	1
3	1696	181.613980937604	1
3	1702	182.326584912191	1
3	1708	182.840746458667	1
3	1719	184.574751672727	1
3	1728	185.653381848509	1
3	1731	185.73831306399	1
3	1738	186.579628597953	1
3	1748	187.843799441929	1
3	1752	188.092961572882	1
3	1759	188.97706401667	1
3	1764	189.371545942841	1
3	1776	191.085919416725	1
3	1788	192.971053201972	1
3	1792	193.030185860073	1
3	1800	194.080151737308	1
3	1804	194.194642700507	1
3	1807	194.258090400827	1
3	1810	194.309621810916	1
3	1814	194.494439688561	1
3	1823	195.632639783248	1
3	1834	197.38632231151	1
3	1840	197.869542164046	1
3	1845	198.295324725429	1
3	1849	198.451717793978	1
3	1853	198.634756398744	1
3	1859	199.304062117254	1
3	1864	199.644920553788	1
4	9	0.577144061132	1
4	39	2.616889028598	1
4	64	3.803715123244	2
4	83	4.664612548188	2
4	110	6.299425455245	2
4	125	6.664346937282	2
4	128	6.670810537485	2
4	135	6.799889861502	3
4	149	7.096434697679	4
4	156	7.276236325065	4
4	184	9.80479245473	5
4	198	10.00560934713	5
4	206	10.581394018442	6
4	211	10.889248463287	7
4	215	11.195762669922	8
4	220	11.557958715697	9
4	226	12.177791545066	10
4	232	12.797299317998	11
4	236	12.997356559827	12
4	244	13.912473800344	13
4	254	15.226378949746	14
4	260	15.838867776699	15
4	264	16.174017691392	16
4	268	16.401494246992	17
4	275	17.020787163927	18
4	291	19.733636015003	19
4	294	19.738348901481	20
4	298	19.869703784384	21
4	305	20.764312992011	22
4	309	20.962015813681	23
4	313	21.150618253607	24
4	318	21.429704513629	25
4	331	23.58688952648	26
4	336	23.925788345056	27
4	341	24.300825104053	28
4	363	28.099600402228	29
4	371	29.216414138528	30
4	375	29.421965482337	31
4	384	30.574190920471	32
4	402	33.554419097611	33
4	413	35.189675284464	34
4	417	35.284532702401	35
4	420	35.377859699559	36
4	424	35.529824122839	37
4	428	35.815269204393	38
4	438	37.100719132249	39
4	443	37.616061164059	40
4	456	39.636360599476	41
4	464	40.530441891067	42
4	470	41.141835484196	43
4	474	41.380121012559	44
4	478	41.461390880138	45
4	485	42.427645220433	46
4	489	42.527753299401	47
4	496	43.383773308505	48
4	500	43.630166692764	49
4	504	43.790888634848	50
4	512	44.804887233042	51
4	517	45.11584795785	52
4	521	45.26529939022	53
4	532	47.013407405242	54
4	552	50.264217389096	55
4	555	50.33384030696	56
4	558	50.355576502881	57
4	567	51.453692058457	58
4	570	51.462997672772	59
4	573	51.514500540862	60
4	586	53.488948803025	61
4	594	54.540816052759	62
4	606	56.26051530978	63
4	614	57.345939037042	64
4	617	57.413893044821	65
4	622	57.833178203118	66
4	630	58.78774646114	67
4	652	62.590960702332	68
4	660	63.527857168255	69
4	665	64.00924161958	70
4	685	67.288336965082	71
4	688	67.456793837596	72
4	696	68.307188404267	73
4	700	68.653819058801	74
4	704	68.822232474303	75
4	712	69.825916871506	76
4	722	71.177967966825	77
4	727	71.531798263843	78
4	732	71.891967452521	79
4	735	71.934366248532	80
4	738	71.966910871281	81
4	742	72.270654029357	82
4	768	76.716937085434	83
4	798	82.100363775638	84
4	805	83.0123469835	85
4	810	83.283981977174	86
4	818	84.347434492627	87
4	823	84.843048381348	88
4	831	85.708947339819	89
4	839	86.772177499038	90
4	844	87.089129004996	91
4	858	89.390478487272	92
4	866	90.439327345143	93
4	870	90.593615397325	94
4	874	90.75605792425	95
4	878	90.947091584308	96
4	883	91.428777308256	97
4	887	91.542468479265	98
4	891	91.742354010086	99
4	895	91.929597490519	100
4	900	92.483776007459	101
4	925	96.840847618219	102
4	933	97.841203194925	103
4	937	98.067779050442	104
4	941	98.22713670646	105
4	945	98.320411539925	106
4	957	100.228979201257	107
4	963	100.787217977209	108
4	966	100.87896119722	109
4	972	101.366185181859	110
4	980	102.415180869225	111
4	988	103.476063778047	112
4	997	104.642523286575	113
4	1004	105.418579387636	114
4	1009	105.742015812834	115
4	1016	106.518339313506	116
4	1024	107.642289182381	117
4	1028	107.772466820711	118
4	1037	108.946701808543	119
4	1043	109.564929665577	120
4	1049	110.30265617962	121
4	1053	110.405238616095	122
4	1060	111.128734715754	123
4	1063	111.26160248707	124
4	1075	113.040073134703	125
4	1081	113.518602503972	126
4	1084	113.59396086527	127
4	1089	114.042355086696	128
4	1096	114.755071085888	129
4	1104	115.813462595861	130
4	1111	116.566462663529	131
4	1114	116.62759743479	132
4	1118	116.906895976732	133
4	1123	117.168351283999	134
4	1130	118.053772039817	135
4	1134	118.198312393979	136
4	1145	119.873514170023	137
4	1151	120.441078750765	138
4	1157	121.11241214687	139
4	1164	121.804987493529	140
4	1171	122.624249036516	141
4	1178	123.438482507038	142
4	1182	123.62653555263	143
4	1186	123.819200499112	144
4	1195	124.995116513445	145
4	1200	125.427564036193	146
4	1204	125.641771909561	147
4	1210	126.144880130924	148
4	1218	127.158181824678	149
4	1221	127.227560454628	150
4	1226	127.618923111712	151
4	1232	128.294607075504	152
4	1236	128.342909037194	153
4	1240	128.550462140578	154
4	1243	128.607627073054	155
4	1246	128.636733990163	156
4	1256	129.970154439301	157
4	1272	132.641392615719	158
4	1277	132.940762598191	159
4	1280	133.002837786389	160
4	1285	133.41094760531	161
4	1293	134.459838467694	162
4	1297	134.718479261482	163
4	1303	135.277215988352	164
4	1308	135.649173071368	165
4	1311	135.72692015307	166
4	1322	137.159514344972	167
4	1328	137.753299164421	168
4	1341	139.871360223622	169
4	1346	140.326997323291	170
4	1351	140.553490314578	171
4	1357	141.188777833472	172
4	1360	141.200541966085	173
4	1374	143.387322094699	174
4	1389	145.77605487229	175
4	1413	150.022797167734	176
4	1425	151.936730509594	177
4	1433	152.805251209607	178
4	1436	152.868631265831	179
4	1441	153.218357231324	180
4	1447	153.829339732616	181
4	1452	154.291991171615	182
4	1459	155.151949201099	183
4	1468	156.347109426004	184
4	1486	159.335495270153	185
4	1493	160.128070998487	186
4	1499	160.636777721532	187
4	1502	160.719282274934	188
4	1512	162.010020270809	189
4	1519	162.853511480791	190
4	1525	163.546446644444	191
4	1542	166.315612500025	192
4	1557	168.641022116177	193
4	1561	168.857369553181	194
4	1568	169.730667928024	195
4	1573	170.129685118091	196
4	1577	170.176370666703	197
4	1580	170.245396894184	198
4	1584	170.528304180029	199
4	1594	171.916081988532	200
4	1599	172.236926832601	201
4	1603	172.510351739601	202
4	1607	172.649209216717	203
4	1611	172.79250871519	204
4	1614	172.806650789791	205
4	1617	172.949124842244	206
4	1627	174.271774294262	207
4	1631	174.532318179553	208
4	1636	174.829440856566	209
4	1639	174.835110919727	210
4	1648	176.022695573729	211
4	1656	177.12775886884	212
4	1660	177.252903350111	213
4	1671	178.79120865093	214
4	1674	178.975751612144	215
4	1688	181.055493276991	216
4	1692	181.326185890517	217
4	1697	181.613980937604	218
4	1703	182.326584912191	219
4	1709	182.840746458667	220
4	1720	184.574751672727	221
4	1729	185.653381848509	222
4	1732	185.73831306399	223
4	1739	186.579628597953	224
4	1749	187.843799441929	225
4	1753	188.092961572882	226
4	1760	188.97706401667	227
4	1765	189.371545942841	228
4	1777	191.085919416725	229
4	1789	192.971053201972	230
4	1793	193.030185860073	231
4	1801	194.080151737308	232
4	1805	194.194642700507	233
4	1808	194.258090400827	234
4	1811	194.309621810916	235
4	1815	194.494439688561	236
4	1824	195.632639783248	237
4	1835	197.38632231151	238
4	1841	197.869542164046	239
4	1846	198.295324725429	240
4	1850	198.451717793978	241
4	1854	198.634756398744	242
4	1860	199.304062117254	243
4	1865	199.644920553788	244
5	10	0.577144061132	1
5	65	3.803715123244	2
5	84	4.664612548188	3
5	111	6.299425455245	4
5	126	6.664346937282	5
5	150	7.096434697679	6
5	185	9.80479245473	7
6	13	0.677244061132	1
6	67	3.903815123244	1
6	86	4.764712548188	1
6	113	6.399525455245	1
6	132	6.764446937282	1
6	152	7.196534697679	1
6	192	9.90489245473	1
7	16	0.777344061132	1
7	71	4.003915123244	1
7	90	4.864812548188	1
7	117	6.499625455245	1
7	139	6.864546937282	1
7	159	7.296634697679	1
7	195	10.00499245473	1
8	19	0.977344061132	0.4002
8	78	4.203915123244	1.587026094646
8	97	5.064812548188	1.261097424944
8	129	6.699625455245	2.035012907057
8	146	7.064546937282	0.765121482037
8	166	7.496634697679	0.832287760397
8	201	10.20499245473	3.534181917245
9	19	0.977344061132	1
9	78	4.203915123244	1
9	97	5.064812548188	1
9	129	6.699625455245	1
9	146	7.064546937282	1
9	166	7.496634697679	1
9	201	10.20499245473	1

