version 3
run FeedbackVersion-7-20240511-20:45:11-11876
attr configname FeedbackVersion
attr datetime 20240511-20:45:11
attr datetimef 20240511-204511
attr experiment FeedbackVersion
attr inifile omnetpp.ini
attr iterationvars $genInterval=0.45
attr iterationvarsd genInterval=0.45
attr iterationvarsf genInterval=0.45-
attr measurement $genInterval=0.45
attr network NetworkFV
attr processid 11876
attr repetition 0
attr replication #0
attr resultdir results
attr runnumber 7
attr seedset 7
itervar genInterval 0.45
config network NetworkFV
config sim-time-limit 200s
config NetworkFV.nodeTx.gen.generationInterval exponential(0.45)
config NetworkFV.nodeTx.gen.packetByteSize 12500
config NetworkFV.queueOne.bufferSize 200
config NetworkFV.nodeRx.queue.bufferSize 200
config NetworkFV.nodeTx.queue.bufferSize 2000000
config NetworkFV.queueZero.bufferSize 200

vector 0 NetworkFV.nodeRx.queue PacketsLost ETV
vector 1 NetworkFV.nodeRx.queue PacketsAsked ETV
vector 2 NetworkFV.queueOne bufferSize ETV
vector 3 NetworkFV.nodeTx.gen packetGen ETV
vector 4 NetworkFV.nodeTx.queue BufferSize ETV
vector 5 NetworkFV.nodeTx.queue PacketsSent ETV
vector 6 NetworkFV.queueZero bufferSize ETV
vector 7 NetworkFV.nodeRx.queue BufferSize ETV
vector 8 NetworkFV.nodeRx.sink Delay ETV
vector 9 NetworkFV.nodeRx.sink packetUsed ETV
0	1	0	1
0	15	0.2	1
0	28	0.4	1
0	31	0.6002	1
0	34	0.8004	1
0	41	1.0006	1
0	75	1.8014	1
0	76	2.0016	1
0	77	2.2018	1
0	78	2.402	1
0	79	2.6022	1
0	80	2.8024	1
0	88	3.0026	1
0	98	3.403	1
0	102	3.6032	1
0	122	4.0036	1
0	129	4.404	1
0	130	4.6042	1
0	131	4.8044	1
0	132	5.0046	1
0	133	5.2048	1
0	138	5.405	1
0	142	5.6052	1
0	156	5.8054	1
0	159	6.0056	1
0	166	6.2058	1
0	177	6.406	1
0	187	6.6062	1
0	211	7.0066	1
0	232	7.407	1
0	259	8.0076	1
0	265	8.2078	1
0	301	9.0086	1
0	310	9.2088	1
0	318	9.6092	1
0	322	9.8094	1
0	362	10.6102	1
0	376	11.0106	1
0	406	11.6112	1
0	416	12.0116	1
0	417	12.2118	1
0	418	12.412	1
0	419	12.6122	1
0	426	12.8124	1
0	438	13.0126	1
0	441	13.2128	1
0	451	13.413	1
0	488	14.2138	1
0	489	14.414	1
0	490	14.6142	1
0	491	14.8144	1
0	495	15.0146	1
0	512	15.6152	1
0	517	15.8154	1
0	518	16.0156	1
0	522	16.2158	1
0	539	16.416	1
0	542	16.6162	1
0	543	16.8164	1
0	547	17.0166	1
0	564	17.417	1
0	587	18.0176	1
0	588	18.2178	1
0	589	18.418	1
0	590	18.6182	1
0	591	18.8184	1
0	598	19.0186	1
0	628	19.6192	1
0	637	19.8194	1
0	671	20.42	1
0	679	20.8204	1
0	683	21.0206	1
0	697	21.421	1
0	698	21.6212	1
0	699	21.8214	1
0	700	22.0216	1
0	707	22.2218	1
0	714	22.6222	1
0	719	22.8224	1
0	720	23.0226	1
0	721	23.2228	1
0	730	23.423	1
0	747	23.8234	1
0	783	24.6242	1
0	787	24.8244	1
0	804	25.2248	1
0	805	25.425	1
0	814	25.6252	1
0	855	26.426	1
0	895	27.2268	1
0	918	27.8274	1
0	919	28.0276	1
0	920	28.2278	1
0	921	28.428	1
0	922	28.6282	1
0	929	28.8284	1
0	989	30.0296	1
0	990	30.2298	1
0	997	30.43	1
0	1016	31.0306	1
0	1020	31.2308	1
0	1030	31.6312	1
0	1035	31.8314	1
0	1036	32.0316	1
0	1037	32.2318	1
0	1038	32.432	1
0	1039	32.6322	1
0	1049	32.8324	1
1	1	0	2
1	23	0.351981348769	2
1	53	1.206041245725	4
1	80	2.8024	2
1	107	3.766224683246	2
1	133	5.2048	1
1	150	5.757150543495	1
1	171	6.270803967185	1
1	192	6.721587107751	2
1	218	7.140710205238	3
1	251	7.700396520684	5
1	293	8.74968556524	8
1	376	11.0106	4
1	426	12.8124	1
1	432	12.88968349699	1
1	453	13.422606520743	2
1	478	13.821687029098	3
1	512	15.6152	1
1	533	16.390586541671	1
1	552	17.164211772693	2
1	577	17.677160563232	3
1	598	19.0186	1
1	606	19.058810037297	1
1	615	19.158810037297	2
1	642	19.916414642172	4
1	688	21.182008264271	6
1	714	22.6222	3
1	749	23.842220977931	3
1	795	25.018792147806	4
1	842	26.095888101886	6
1	908	27.484563926629	10
1	929	28.8284	5
1	979	29.679680706004	5
1	1030	31.6312	2
1	1049	32.8324	0
2	2	0	1
2	24	0.351981348769	1
2	54	1.206041245725	1
2	81	2.8024	1
2	109	3.766224683246	1
2	134	5.2048	1
2	152	5.757150543495	1
2	173	6.270803967185	1
2	194	6.721587107751	1
2	219	7.140710205238	1
2	252	7.700396520684	1
2	294	8.74968556524	1
2	377	11.0106	1
2	427	12.8124	1
2	434	12.88968349699	1
2	455	13.422606520743	1
2	479	13.821687029098	1
2	513	15.6152	1
2	535	16.390586541671	1
2	554	17.164211772693	1
2	578	17.677160563232	1
2	599	19.0186	1
2	608	19.058810037297	1
2	616	19.158810037297	1
2	644	19.916414642172	1
2	690	21.182008264271	1
2	715	22.6222	1
2	750	23.842220977931	1
2	797	25.018792147806	1
2	843	26.095888101886	1
2	909	27.484563926629	1
2	930	28.8284	1
2	980	29.679680706004	1
2	1031	31.6312	1
2	1050	32.8324	1
3	6	0.035719610161	1
3	12	0.151781348769	1
3	35	0.832972759363	1
3	42	1.005841245725	1
3	60	1.265483079315	1
3	85	2.987586342986	1
3	99	3.566024683246	1
3	114	3.839644161821	1
3	139	5.556950543495	1
3	146	5.722635041323	1
3	160	6.070603967185	1
3	167	6.208461326522	1
3	180	6.521387107751	1
3	183	6.562219398936	1
3	185	6.595869790744	1
3	199	6.840510205238	1
3	207	6.981168798916	1
3	209	6.988386028337	1
3	226	7.300196520684	1
3	245	7.637821662849	1
3	262	8.14948556524	1
3	302	9.063455140093	1
3	319	9.796194676594	1
3	326	9.976973609014	1
3	338	10.192773318821	1
3	352	10.417382471425	1
3	355	10.448077281643	1
3	373	10.95291967659	1
3	386	11.105866524102	1
3	403	11.607935762553	1
3	420	12.68948349699	1
3	442	13.222406520743	1
3	448	13.330414080529	1
3	459	13.521487029098	1
3	473	13.79225482576	1
3	492	14.985898952908	1
3	519	16.190386541671	1
3	526	16.327457797499	1
3	529	16.338804302809	1
3	544	16.964011772693	1
3	561	17.376960563232	1
3	568	17.509363555764	1
3	592	18.858610037297	1
3	631	19.716214642172	1
3	638	19.834005830583	1
3	648	19.920056803444	1
3	663	20.277877711416	1
3	680	20.981808264271	1
3	701	22.061046600963	1
3	722	23.309643723647	1
3	725	23.373954015211	1
3	739	23.642020977931	1
3	756	23.975517826005	1
3	768	24.194021334956	1
3	784	24.818592147806	1
3	791	25.017649614839	1
3	806	25.515204226129	1
3	809	25.611896795848	1
3	825	25.895688101886	1
3	832	25.943337383307	1
3	838	26.046487895639	1
3	852	26.343042549291	1
3	871	26.646723892614	1
3	887	27.074741388721	1
3	898	27.284363926629	1
3	923	28.64382120353	1
3	937	28.935844713769	1
3	946	29.128836879712	1
3	958	29.333826930782	1
3	967	29.479480706004	1
3	991	30.298324487445	1
3	1001	30.564501362591	1
3	1017	31.223217115421	1
3	1040	32.648832270042	1
3	1046	32.818423724132	1
3	1057	32.907494514782	1
3	1070	33.290036913515	1
3	1073	33.359330491514	1
3	1077	33.504694730008	1
3	1080	33.543935651184	1
3	1084	33.815294366864	1
3	1089	34.171866413508	1
3	1093	34.367785408784	1
3	1097	34.534900549144	1
3	1102	35.016936110896	1
3	1106	35.166465987172	1
3	1110	35.374632785712	1
3	1119	36.516834348751	1
3	1123	36.793362891904	1
3	1128	37.048962720849	1
3	1133	37.620712347547	1
3	1138	37.86487638907	1
3	1142	38.104598831573	1
3	1154	40.032743192377	1
3	1163	41.098781257407	1
3	1169	41.808788513528	1
3	1173	41.898339346338	1
3	1177	42.087580434693	1
3	1183	42.695704274488	1
3	1187	42.856426032175	1
3	1191	43.103398968968	1
3	1195	43.418888984384	1
3	1200	43.669051360135	1
3	1205	44.108336364322	1
3	1210	44.561108533968	1
3	1215	45.042583390674	1
3	1220	45.375602363257	1
3	1224	45.510574416617	1
3	1228	45.751751262892	1
3	1232	45.985539082104	1
3	1235	45.986181636329	1
3	1241	46.48135991973	1
3	1244	46.524919862627	1
3	1248	46.785437631153	1
3	1254	47.341542331563	1
3	1260	48.02646379775	1
3	1265	48.360842475	1
3	1271	48.880144860023	1
3	1276	49.416209857574	1
3	1282	50.016673757269	1
3	1292	51.416873311487	1
3	1297	51.719369409334	1
3	1302	52.236231211355	1
3	1312	53.621748455086	1
3	1315	53.646314895816	1
3	1319	53.721432340533	1
3	1323	53.887663366859	1
3	1328	54.358951841837	1
3	1333	54.763027868952	1
3	1338	55.129831606904	1
3	1341	55.250448187886	1
3	1349	56.163493047559	1
3	1360	57.671703650733	1
3	1363	57.741476345989	1
3	1372	59.047061013201	1
3	1377	59.314376294578	1
3	1384	60.163308323124	1
3	1389	60.64775908931	1
3	1394	60.935431854511	1
3	1399	61.423164874644	1
3	1406	62.251999063175	1
3	1414	63.072647341003	1
3	1417	63.135890107872	1
3	1422	63.478105718544	1
3	1425	63.644259258506	1
3	1428	63.662463294031	1
3	1433	63.94225100636	1
3	1436	63.987467779032	1
3	1442	64.596859401872	1
3	1449	65.31862698628	1
3	1453	65.617963407088	1
3	1457	65.849629878952	1
3	1461	65.915868550724	1
3	1466	66.432075317623	1
3	1470	66.621475019632	1
3	1475	66.935125730777	1
3	1479	67.11161250397	1
3	1483	67.339372355687	1
3	1487	67.500145453685	1
3	1493	68.193560828284	1
3	1497	68.274976723314	1
3	1506	69.635245102215	1
3	1511	69.87643409342	1
3	1514	70.010689279249	1
3	1519	70.27818090859	1
3	1523	70.608356126615	1
3	1530	71.279401616994	1
3	1537	72.190983771877	1
3	1544	72.90718232026	1
3	1548	73.183934302838	1
3	1553	73.516466775895	1
3	1556	73.568909788847	1
3	1560	73.846719101755	1
3	1567	74.568726579166	1
3	1573	75.246444822628	1
3	1578	75.556492136793	1
3	1586	76.538809668011	1
3	1589	76.637638266249	1
3	1595	77.143294347747	1
3	1603	78.082930180258	1
3	1609	78.808256392679	1
3	1613	78.948752302395	1
3	1622	80.208171167915	1
3	1626	80.329858505805	1
3	1629	80.348535919398	1
3	1633	80.558307796282	1
3	1641	81.496481228561	1
3	1645	81.715902794873	1
3	1648	81.861586656199	1
3	1652	81.981010649088	1
3	1656	82.27162707373	1
3	1660	82.35861974546	1
3	1666	83.075637344912	1
3	1671	83.304389608018	1
3	1676	83.87281371291	1
3	1684	84.702082248292	1
3	1687	84.773708185237	1
3	1693	85.46904776646	1
3	1699	85.952858442193	1
3	1704	86.413578892566	1
3	1707	86.445873947407	1
3	1712	86.7542197314	1
3	1716	86.952993911124	1
3	1720	87.241291196128	1
3	1727	87.99537219957	1
3	1731	88.284677354767	1
3	1736	88.535822530619	1
3	1745	89.829519463799	1
3	1750	90.241686561866	1
3	1756	90.844076791971	1
3	1762	91.430222654293	1
3	1765	91.449330500279	1
3	1772	92.224069326214	1
3	1778	92.862128981482	1
3	1785	93.505298233236	1
3	1789	93.829439944054	1
3	1792	93.832665954498	1
3	1796	93.921105790012	1
3	1800	94.166432329054	1
3	1804	94.390344659357	1
3	1808	94.670249554275	1
3	1818	95.933240413193	1
3	1821	95.958934993116	1
3	1824	96.066675600303	1
3	1829	96.417526550538	1
3	1836	97.172731059356	1
3	1841	97.593890019692	1
3	1845	97.826506335108	1
3	1852	98.619810952936	1
3	1857	99.017445432198	1
3	1866	100.29725858318	1
3	1870	100.389865679272	1
3	1873	100.451576618565	1
3	1880	101.20444025186	1
3	1884	101.322306156441	1
3	1889	101.713590268147	1
3	1894	102.19794210854	1
3	1898	102.464465996966	1
3	1902	102.528415396594	1
3	1908	103.248366200401	1
3	1912	103.362533044222	1
3	1917	103.716169512213	1
3	1921	104.101073793115	1
3	1926	104.344974190317	1
3	1929	104.428564353962	1
3	1932	104.437268490482	1
3	1939	105.123210916019	1
3	1944	105.641294674842	1
3	1952	106.516427762279	1
3	1956	106.81775763452	1
3	1959	106.833172043134	1
3	1963	106.94531420229	1
3	1967	107.287613774329	1
3	1972	107.647485609782	1
3	1979	108.36492497536	1
3	1983	108.697646841699	1
3	1995	110.360163896084	1
3	1999	110.661014537366	1
3	2003	110.8052672202	1
3	2007	110.942611767623	1
3	2010	111.025972968044	1
3	2015	111.363141892023	1
3	2022	112.305055964651	1
3	2035	114.179173976138	1
3	2043	115.2586802787	1
3	2048	115.698165552626	1
3	2052	115.797194535683	1
3	2057	116.244069514328	1
3	2061	116.506218775233	1
3	2070	117.589658797706	1
3	2076	118.161260982925	1
3	2086	119.63903133103	1
3	2093	120.478983082488	1
3	2098	120.874855858632	1
3	2102	120.957770066199	1
3	2105	121.038860559947	1
3	2111	121.530950011941	1
3	2115	121.754560294038	1
3	2121	122.496791772739	1
3	2131	123.798354898024	1
3	2136	124.15739757685	1
3	2140	124.346697656679	1
3	2143	124.427690583133	1
3	2149	124.977148903941	1
3	2152	124.993427793221	1
3	2156	125.27312367692	1
3	2160	125.421910165703	1
3	2164	125.641982194674	1
3	2171	126.384296552084	1
3	2175	126.722558472093	1
3	2179	126.743168117239	1
3	2185	127.519072180053	1
3	2188	127.522784879588	1
3	2194	127.980628236395	1
3	2198	128.182595574018	1
3	2205	129.076728674911	1
3	2208	129.106310028989	1
3	2214	129.561855894951	1
3	2217	129.634717535846	1
3	2236	132.901827525264	1
3	2239	132.912386096492	1
3	2244	133.240595844098	1
3	2249	133.575328717942	1
3	2253	133.753945700963	1
3	2258	134.290804417295	1
3	2262	134.337603684034	1
3	2266	134.588236998845	1
3	2271	134.964652202139	1
3	2274	135.029690394704	1
3	2278	135.138741811753	1
3	2281	135.319869204071	1
3	2284	135.325206585909	1
3	2289	135.726805495823	1
3	2293	135.886805065543	1
3	2303	137.157827896682	1
3	2306	137.175718715803	1
3	2320	139.380978450078	1
3	2331	141.063371215622	1
3	2335	141.187817892106	1
3	2340	141.548601796819	1
3	2343	141.55338812017	1
3	2346	141.586876123813	1
3	2353	142.385954887254	1
3	2357	142.572983079001	1
3	2366	143.748386518149	1
3	2369	143.873604910722	1
3	2374	144.149726412056	1
3	2377	144.200829147212	1
3	2383	144.865014200714	1
3	2389	145.527015638906	1
3	2397	146.432146512543	1
3	2401	146.626415475275	1
3	2406	147.049695079471	1
3	2409	147.143211853776	1
3	2417	148.070498460104	1
3	2426	149.167536824854	1
3	2429	149.178423826076	1
3	2436	150.066880690653	1
3	2440	150.209484959262	1
3	2444	150.438530921734	1
3	2448	150.584623338009	1
3	2452	150.940303070729	1
3	2456	150.998151604843	1
3	2460	151.267485540977	1
3	2469	152.35464252832	1
3	2474	152.886930075894	1
3	2477	152.90084055002	1
3	2481	153.009111756794	1
3	2486	153.51151586941	1
3	2490	153.687585014005	1
3	2493	153.720890527469	1
3	2499	154.326888378476	1
3	2503	154.528266693949	1
3	2507	154.618982478318	1
3	2511	154.862637626523	1
3	2517	155.398497519886	1
3	2520	155.488571750683	1
3	2525	155.825216718571	1
3	2530	156.156454579857	1
3	2533	156.25602119798	1
3	2538	156.600586266247	1
3	2543	157.073603219699	1
3	2547	157.245199320512	1
3	2552	157.566001553252	1
3	2558	158.167172809371	1
3	2563	158.69280966132	1
3	2567	158.771377133816	1
3	2571	159.154765495115	1
3	2575	159.250985572914	1
3	2581	159.91257132448	1
3	2585	160.109557536257	1
3	2589	160.334245226994	1
3	2593	160.548184261551	1
3	2604	161.981088551471	1
3	2607	162.085052907803	1
3	2619	163.803635783099	1
3	2627	164.933010915849	1
3	2631	165.037312898249	1
3	2638	165.829675135228	1
3	2642	166.120494873367	1
3	2646	166.171358678112	1
3	2652	166.874000573055	1
3	2656	167.081549476497	1
3	2659	167.143151277683	1
3	2663	167.262329164835	1
3	2670	168.051822853294	1
3	2674	168.321732864067	1
3	2678	168.443713793811	1
3	2682	168.589244730351	1
3	2691	169.859541892446	1
3	2696	170.173087270066	1
3	2702	170.946395050428	1
3	2711	172.097859238525	1
3	2714	172.121775477186	1
3	2718	172.338717892458	1
3	2721	172.339553257325	1
3	2727	172.812138237956	1
3	2730	172.899782757867	1
3	2735	173.307214105355	1
3	2740	173.655114744704	1
3	2746	174.282477423566	1
3	2751	174.629978870198	1
3	2754	174.658620742844	1
3	2759	174.981256301105	1
3	2765	175.59586652569	1
3	2768	175.720659247105	1
3	2778	177.03641161648	1
3	2781	177.039199762863	1
3	2786	177.455553009472	1
3	2792	178.063933963411	1
3	2796	178.216523370877	1
3	2800	178.485308324389	1
3	2806	178.987448906036	1
3	2813	179.922171208559	1
3	2819	180.48240510807	1
3	2823	180.702597920636	1
3	2829	181.183388482031	1
3	2832	181.185264461013	1
3	2835	181.25677578199	1
3	2838	181.328170982682	1
3	2849	182.961531091736	1
3	2852	182.978341888908	1
3	2862	184.37768458421	1
3	2866	184.520660059451	1
3	2870	184.769390454481	1
3	2874	184.906484101047	1
3	2879	185.311713257473	1
3	2884	185.734568419153	1
3	2887	185.752764244606	1
3	2891	185.824995880025	1
3	2904	187.839717096408	1
3	2907	187.944481248237	1
3	2914	188.713013897477	1
3	2920	189.287903746671	1
3	2925	189.743295842301	1
3	2929	189.883431252257	1
3	2935	190.52767212152	1
3	2939	190.619669824629	1
3	2942	190.713401130482	1
3	2949	191.461576443234	1
3	2953	191.627028081104	1
3	2956	191.669979423781	1
3	2960	191.7972777285	1
3	2963	191.859774816085	1
3	2968	192.267682708797	1
3	2973	192.779861453095	1
3	2977	192.823244204312	1
3	2981	193.091941581746	1
3	2989	194.108771133603	1
3	2993	194.330956018023	1
3	2998	194.610140403581	1
3	3003	195.098054305541	1
3	3007	195.362856421852	1
3	3010	195.367598915635	1
3	3014	195.41737298622	1
3	3017	195.553794980961	1
3	3023	196.073490096313	1
3	3029	196.701365986808	1
3	3036	197.465326498819	1
3	3045	198.712906793004	1
3	3050	199.159773559364	1
3	3056	199.666491055416	1
3	3059	199.791186829635	1
4	7	0.035719610161	1
4	13	0.151781348769	1
4	36	0.832972759363	1
4	43	1.005841245725	1
4	61	1.265483079315	1
4	86	2.987586342986	1
4	100	3.566024683246	1
4	115	3.839644161821	1
4	140	5.556950543495	1
4	147	5.722635041323	1
4	161	6.070603967185	2
4	168	6.208461326522	2
4	181	6.521387107751	3
4	184	6.562219398936	3
4	186	6.595869790744	4
4	200	6.840510205238	5
4	208	6.981168798916	4
4	210	6.988386028337	5
4	227	7.300196520684	6
4	246	7.637821662849	4
4	263	8.14948556524	5
4	303	9.063455140093	1
4	320	9.796194676594	1
4	327	9.976973609014	1
4	339	10.192773318821	1
4	353	10.417382471425	1
4	356	10.448077281643	1
4	374	10.95291967659	1
4	387	11.105866524102	1
4	404	11.607935762553	1
4	421	12.68948349699	1
4	443	13.222406520743	1
4	449	13.330414080529	1
4	460	13.521487029098	2
4	474	13.79225482576	1
4	493	14.985898952908	2
4	520	16.190386541671	1
4	527	16.327457797499	1
4	530	16.338804302809	2
4	545	16.964011772693	3
4	562	17.376960563232	3
4	569	17.509363555764	2
4	593	18.858610037297	3
4	632	19.716214642172	1
4	639	19.834005830583	1
4	649	19.920056803444	1
4	664	20.277877711416	1
4	681	20.981808264271	1
4	702	22.061046600963	1
4	723	23.309643723647	1
4	726	23.373954015211	1
4	740	23.642020977931	1
4	757	23.975517826005	1
4	769	24.194021334956	1
4	785	24.818592147806	1
4	792	25.017649614839	1
4	807	25.515204226129	2
4	810	25.611896795848	2
4	826	25.895688101886	1
4	833	25.943337383307	1
4	839	26.046487895639	2
4	853	26.343042549291	3
4	872	26.646723892614	1
4	888	27.074741388721	1
4	899	27.284363926629	1
4	924	28.64382120353	1
4	938	28.935844713769	1
4	947	29.128836879712	1
4	959	29.333826930782	1
4	968	29.479480706004	1
4	992	30.298324487445	1
4	1002	30.564501362591	1
4	1018	31.223217115421	1
4	1041	32.648832270042	1
4	1047	32.818423724132	1
4	1058	32.907494514782	1
4	1071	33.290036913515	2
4	1074	33.359330491514	3
4	1078	33.504694730008	4
4	1081	33.543935651184	5
4	1085	33.815294366864	6
4	1090	34.171866413508	7
4	1094	34.367785408784	8
4	1098	34.534900549144	9
4	1103	35.016936110896	10
4	1107	35.166465987172	11
4	1111	35.374632785712	12
4	1120	36.516834348751	13
4	1124	36.793362891904	14
4	1129	37.048962720849	15
4	1134	37.620712347547	16
4	1139	37.86487638907	17
4	1143	38.104598831573	18
4	1155	40.032743192377	19
4	1164	41.098781257407	20
4	1170	41.808788513528	21
4	1174	41.898339346338	22
4	1178	42.087580434693	23
4	1184	42.695704274488	24
4	1188	42.856426032175	25
4	1192	43.103398968968	26
4	1196	43.418888984384	27
4	1201	43.669051360135	28
4	1206	44.108336364322	29
4	1211	44.561108533968	30
4	1216	45.042583390674	31
4	1221	45.375602363257	32
4	1225	45.510574416617	33
4	1229	45.751751262892	34
4	1233	45.985539082104	35
4	1236	45.986181636329	36
4	1242	46.48135991973	37
4	1245	46.524919862627	38
4	1249	46.785437631153	39
4	1255	47.341542331563	40
4	1261	48.02646379775	41
4	1266	48.360842475	42
4	1272	48.880144860023	43
4	1277	49.416209857574	44
4	1283	50.016673757269	45
4	1293	51.416873311487	46
4	1298	51.719369409334	47
4	1303	52.236231211355	48
4	1313	53.621748455086	49
4	1316	53.646314895816	50
4	1320	53.721432340533	51
4	1324	53.887663366859	52
4	1329	54.358951841837	53
4	1334	54.763027868952	54
4	1339	55.129831606904	55
4	1342	55.250448187886	56
4	1350	56.163493047559	57
4	1361	57.671703650733	58
4	1364	57.741476345989	59
4	1373	59.047061013201	60
4	1378	59.314376294578	61
4	1385	60.163308323124	62
4	1390	60.64775908931	63
4	1395	60.935431854511	64
4	1400	61.423164874644	65
4	1407	62.251999063175	66
4	1415	63.072647341003	67
4	1418	63.135890107872	68
4	1423	63.478105718544	69
4	1426	63.644259258506	70
4	1429	63.662463294031	71
4	1434	63.94225100636	72
4	1437	63.987467779032	73
4	1443	64.596859401872	74
4	1450	65.31862698628	75
4	1454	65.617963407088	76
4	1458	65.849629878952	77
4	1462	65.915868550724	78
4	1467	66.432075317623	79
4	1471	66.621475019632	80
4	1476	66.935125730777	81
4	1480	67.11161250397	82
4	1484	67.339372355687	83
4	1488	67.500145453685	84
4	1494	68.193560828284	85
4	1498	68.274976723314	86
4	1507	69.635245102215	87
4	1512	69.87643409342	88
4	1515	70.010689279249	89
4	1520	70.27818090859	90
4	1524	70.608356126615	91
4	1531	71.279401616994	92
4	1538	72.190983771877	93
4	1545	72.90718232026	94
4	1549	73.183934302838	95
4	1554	73.516466775895	96
4	1557	73.568909788847	97
4	1561	73.846719101755	98
4	1568	74.568726579166	99
4	1574	75.246444822628	100
4	1579	75.556492136793	101
4	1587	76.538809668011	102
4	1590	76.637638266249	103
4	1596	77.143294347747	104
4	1604	78.082930180258	105
4	1610	78.808256392679	106
4	1614	78.948752302395	107
4	1623	80.208171167915	108
4	1627	80.329858505805	109
4	1630	80.348535919398	110
4	1634	80.558307796282	111
4	1642	81.496481228561	112
4	1646	81.715902794873	113
4	1649	81.861586656199	114
4	1653	81.981010649088	115
4	1657	82.27162707373	116
4	1661	82.35861974546	117
4	1667	83.075637344912	118
4	1672	83.304389608018	119
4	1677	83.87281371291	120
4	1685	84.702082248292	121
4	1688	84.773708185237	122
4	1694	85.46904776646	123
4	1700	85.952858442193	124
4	1705	86.413578892566	125
4	1708	86.445873947407	126
4	1713	86.7542197314	127
4	1717	86.952993911124	128
4	1721	87.241291196128	129
4	1728	87.99537219957	130
4	1732	88.284677354767	131
4	1737	88.535822530619	132
4	1746	89.829519463799	133
4	1751	90.241686561866	134
4	1757	90.844076791971	135
4	1763	91.430222654293	136
4	1766	91.449330500279	137
4	1773	92.224069326214	138
4	1779	92.862128981482	139
4	1786	93.505298233236	140
4	1790	93.829439944054	141
4	1793	93.832665954498	142
4	1797	93.921105790012	143
4	1801	94.166432329054	144
4	1805	94.390344659357	145
4	1809	94.670249554275	146
4	1819	95.933240413193	147
4	1822	95.958934993116	148
4	1825	96.066675600303	149
4	1830	96.417526550538	150
4	1837	97.172731059356	151
4	1842	97.593890019692	152
4	1846	97.826506335108	153
4	1853	98.619810952936	154
4	1858	99.017445432198	155
4	1867	100.29725858318	156
4	1871	100.389865679272	157
4	1874	100.451576618565	158
4	1881	101.20444025186	159
4	1885	101.322306156441	160
4	1890	101.713590268147	161
4	1895	102.19794210854	162
4	1899	102.464465996966	163
4	1903	102.528415396594	164
4	1909	103.248366200401	165
4	1913	103.362533044222	166
4	1918	103.716169512213	167
4	1922	104.101073793115	168
4	1927	104.344974190317	169
4	1930	104.428564353962	170
4	1933	104.437268490482	171
4	1940	105.123210916019	172
4	1945	105.641294674842	173
4	1953	106.516427762279	174
4	1957	106.81775763452	175
4	1960	106.833172043134	176
4	1964	106.94531420229	177
4	1968	107.287613774329	178
4	1973	107.647485609782	179
4	1980	108.36492497536	180
4	1984	108.697646841699	181
4	1996	110.360163896084	182
4	2000	110.661014537366	183
4	2004	110.8052672202	184
4	2008	110.942611767623	185
4	2011	111.025972968044	186
4	2016	111.363141892023	187
4	2023	112.305055964651	188
4	2036	114.179173976138	189
4	2044	115.2586802787	190
4	2049	115.698165552626	191
4	2053	115.797194535683	192
4	2058	116.244069514328	193
4	2062	116.506218775233	194
4	2071	117.589658797706	195
4	2077	118.161260982925	196
4	2087	119.63903133103	197
4	2094	120.478983082488	198
4	2099	120.874855858632	199
4	2103	120.957770066199	200
4	2106	121.038860559947	201
4	2112	121.530950011941	202
4	2116	121.754560294038	203
4	2122	122.496791772739	204
4	2132	123.798354898024	205
4	2137	124.15739757685	206
4	2141	124.346697656679	207
4	2144	124.427690583133	208
4	2150	124.977148903941	209
4	2153	124.993427793221	210
4	2157	125.27312367692	211
4	2161	125.421910165703	212
4	2165	125.641982194674	213
4	2172	126.384296552084	214
4	2176	126.722558472093	215
4	2180	126.743168117239	216
4	2186	127.519072180053	217
4	2189	127.522784879588	218
4	2195	127.980628236395	219
4	2199	128.182595574018	220
4	2206	129.076728674911	221
4	2209	129.106310028989	222
4	2215	129.561855894951	223
4	2218	129.634717535846	224
4	2237	132.901827525264	225
4	2240	132.912386096492	226
4	2245	133.240595844098	227
4	2250	133.575328717942	228
4	2254	133.753945700963	229
4	2259	134.290804417295	230
4	2263	134.337603684034	231
4	2267	134.588236998845	232
4	2272	134.964652202139	233
4	2275	135.029690394704	234
4	2279	135.138741811753	235
4	2282	135.319869204071	236
4	2285	135.325206585909	237
4	2290	135.726805495823	238
4	2294	135.886805065543	239
4	2304	137.157827896682	240
4	2307	137.175718715803	241
4	2321	139.380978450078	242
4	2332	141.063371215622	243
4	2336	141.187817892106	244
4	2341	141.548601796819	245
4	2344	141.55338812017	246
4	2347	141.586876123813	247
4	2354	142.385954887254	248
4	2358	142.572983079001	249
4	2367	143.748386518149	250
4	2370	143.873604910722	251
4	2375	144.149726412056	252
4	2378	144.200829147212	253
4	2384	144.865014200714	254
4	2390	145.527015638906	255
4	2398	146.432146512543	256
4	2402	146.626415475275	257
4	2407	147.049695079471	258
4	2410	147.143211853776	259
4	2418	148.070498460104	260
4	2427	149.167536824854	261
4	2430	149.178423826076	262
4	2437	150.066880690653	263
4	2441	150.209484959262	264
4	2445	150.438530921734	265
4	2449	150.584623338009	266
4	2453	150.940303070729	267
4	2457	150.998151604843	268
4	2461	151.267485540977	269
4	2470	152.35464252832	270
4	2475	152.886930075894	271
4	2478	152.90084055002	272
4	2482	153.009111756794	273
4	2487	153.51151586941	274
4	2491	153.687585014005	275
4	2494	153.720890527469	276
4	2500	154.326888378476	277
4	2504	154.528266693949	278
4	2508	154.618982478318	279
4	2512	154.862637626523	280
4	2518	155.398497519886	281
4	2521	155.488571750683	282
4	2526	155.825216718571	283
4	2531	156.156454579857	284
4	2534	156.25602119798	285
4	2539	156.600586266247	286
4	2544	157.073603219699	287
4	2548	157.245199320512	288
4	2553	157.566001553252	289
4	2559	158.167172809371	290
4	2564	158.69280966132	291
4	2568	158.771377133816	292
4	2572	159.154765495115	293
4	2576	159.250985572914	294
4	2582	159.91257132448	295
4	2586	160.109557536257	296
4	2590	160.334245226994	297
4	2594	160.548184261551	298
4	2605	161.981088551471	299
4	2608	162.085052907803	300
4	2620	163.803635783099	301
4	2628	164.933010915849	302
4	2632	165.037312898249	303
4	2639	165.829675135228	304
4	2643	166.120494873367	305
4	2647	166.171358678112	306
4	2653	166.874000573055	307
4	2657	167.081549476497	308
4	2660	167.143151277683	309
4	2664	167.262329164835	310
4	2671	168.051822853294	311
4	2675	168.321732864067	312
4	2679	168.443713793811	313
4	2683	168.589244730351	314
4	2692	169.859541892446	315
4	2697	170.173087270066	316
4	2703	170.946395050428	317
4	2712	172.097859238525	318
4	2715	172.121775477186	319
4	2719	172.338717892458	320
4	2722	172.339553257325	321
4	2728	172.812138237956	322
4	2731	172.899782757867	323
4	2736	173.307214105355	324
4	2741	173.655114744704	325
4	2747	174.282477423566	326
4	2752	174.629978870198	327
4	2755	174.658620742844	328
4	2760	174.981256301105	329
4	2766	175.59586652569	330
4	2769	175.720659247105	331
4	2779	177.03641161648	332
4	2782	177.039199762863	333
4	2787	177.455553009472	334
4	2793	178.063933963411	335
4	2797	178.216523370877	336
4	2801	178.485308324389	337
4	2807	178.987448906036	338
4	2814	179.922171208559	339
4	2820	180.48240510807	340
4	2824	180.702597920636	341
4	2830	181.183388482031	342
4	2833	181.185264461013	343
4	2836	181.25677578199	344
4	2839	181.328170982682	345
4	2850	182.961531091736	346
4	2853	182.978341888908	347
4	2863	184.37768458421	348
4	2867	184.520660059451	349
4	2871	184.769390454481	350
4	2875	184.906484101047	351
4	2880	185.311713257473	352
4	2885	185.734568419153	353
4	2888	185.752764244606	354
4	2892	185.824995880025	355
4	2905	187.839717096408	356
4	2908	187.944481248237	357
4	2915	188.713013897477	358
4	2921	189.287903746671	359
4	2926	189.743295842301	360
4	2930	189.883431252257	361
4	2936	190.52767212152	362
4	2940	190.619669824629	363
4	2943	190.713401130482	364
4	2950	191.461576443234	365
4	2954	191.627028081104	366
4	2957	191.669979423781	367
4	2961	191.7972777285	368
4	2964	191.859774816085	369
4	2969	192.267682708797	370
4	2974	192.779861453095	371
4	2978	192.823244204312	372
4	2982	193.091941581746	373
4	2990	194.108771133603	374
4	2994	194.330956018023	375
4	2999	194.610140403581	376
4	3004	195.098054305541	377
4	3008	195.362856421852	378
4	3011	195.367598915635	379
4	3015	195.41737298622	380
4	3018	195.553794980961	381
4	3024	196.073490096313	382
4	3030	196.701365986808	383
4	3037	197.465326498819	384
4	3046	198.712906793004	385
4	3051	199.159773559364	386
4	3057	199.666491055416	387
4	3060	199.791186829635	388
5	8	0.035719610161	1
5	14	0.151781348769	2
5	37	0.832972759363	3
5	44	1.005841245725	4
5	62	1.265483079315	5
5	87	2.987586342986	6
5	101	3.566024683246	7
5	116	3.839644161821	8
5	141	5.556950543495	9
5	162	6.070603967185	10
5	182	6.521387107751	11
5	201	6.840510205238	12
5	204	6.940510205238	13
5	228	7.300196520684	14
5	229	7.400196520684	15
5	235	7.500196520684	16
5	264	8.14948556524	17
5	266	8.24948556524	18
5	269	8.34948556524	19
5	275	8.44948556524	20
5	279	8.54948556524	21
5	304	9.063455140093	22
5	321	9.796194676594	23
5	328	9.976973609014	24
5	340	10.192773318821	25
5	354	10.417382471425	26
5	357	10.517382471425	27
5	375	10.95291967659	28
5	388	11.105866524102	29
5	405	11.607935762553	30
5	422	12.68948349699	31
5	444	13.222406520743	32
5	461	13.521487029098	33
5	463	13.621487029098	34
5	494	14.985898952908	35
5	496	15.085898952908	36
5	521	16.190386541671	37
5	546	16.964011772693	38
5	563	17.376960563232	39
5	565	17.476960563232	40
5	594	18.858610037297	41
5	595	18.958610037297	42
5	603	19.058610037297	43
5	633	19.716214642172	44
5	640	19.834005830583	45
5	650	19.934005830583	46
5	665	20.277877711416	47
5	682	20.981808264271	48
5	703	22.061046600963	49
5	724	23.309643723647	50
5	727	23.409643723647	51
5	741	23.642020977931	52
5	758	23.975517826005	53
5	770	24.194021334956	54
5	786	24.818592147806	55
5	808	25.515204226129	56
5	811	25.615204226129	57
5	815	25.715204226129	58
5	827	25.895688101886	59
5	854	26.343042549291	60
5	856	26.443042549291	61
5	861	26.543042549291	62
5	873	26.646723892614	63
5	889	27.074741388721	64
5	900	27.284363926629	65