version 3
run FeedbackVersion-11-20240511-20:45:11-11876
attr configname FeedbackVersion
attr datetime 20240511-20:45:11
attr datetimef 20240511-204511
attr experiment FeedbackVersion
attr inifile omnetpp.ini
attr iterationvars $genInterval=0.65
attr iterationvarsd genInterval=0.65
attr iterationvarsf genInterval=0.65-
attr measurement $genInterval=0.65
attr network NetworkFV
attr processid 11876
attr repetition 0
attr replication #0
attr resultdir results
attr runnumber 11
attr seedset 11
itervar genInterval 0.65
config network NetworkFV
config sim-time-limit 200s
config NetworkFV.nodeTx.gen.generationInterval exponential(0.65)
config NetworkFV.nodeTx.gen.packetByteSize 12500
config NetworkFV.queueOne.bufferSize 200
config NetworkFV.nodeRx.queue.bufferSize 200
config NetworkFV.nodeTx.queue.bufferSize 2000000
config NetworkFV.queueZero.bufferSize 200

vector 0 NetworkFV.nodeRx.queue PacketsLost ETV
vector 1 NetworkFV.nodeRx.queue PacketsAsked ETV
vector 2 NetworkFV.queueOne bufferSize ETV
vector 3 NetworkFV.nodeTx.gen packetGen ETV
vector 4 NetworkFV.nodeTx.queue BufferSize ETV
vector 5 NetworkFV.nodeTx.queue PacketsSent ETV
vector 6 NetworkFV.queueZero bufferSize ETV
vector 7 NetworkFV.nodeRx.queue BufferSize ETV
vector 8 NetworkFV.nodeRx.sink Delay ETV
vector 9 NetworkFV.nodeRx.sink packetUsed ETV
0	1	0	1
0	13	0.2	1
0	34	0.8004	1
0	41	1.0006	1
0	59	1.401	1
0	82	2.0016	1
0	83	2.2018	1
0	90	2.402	1
0	97	2.8024	1
0	98	3.0026	1
0	103	3.2028	1
0	104	3.403	1
0	105	3.6032	1
0	106	3.8034	1
0	110	4.0036	1
0	125	4.404	1
1	1	0	2
1	24	0.429406927313	2
1	48	1.198493011456	4
1	98	3.0026	2
1	125	4.404	0
2	2	0	1
2	25	0.429406927313	1
2	49	1.198493011456	1
2	99	3.0026	1
2	126	4.404	1
3	6	0.129206927313	1
3	9	0.175195567897	1
3	11	0.187979365877	1
3	35	0.898293011456	1
3	56	1.302699748899	1
3	63	1.442979497632	1
3	84	2.281963057724	1
3	107	3.976851901931	1
3	118	4.331152782965	1
3	123	4.403385516726	1
3	140	4.83525724539	1
3	143	5.001535249662	1
3	147	5.009896321962	1
3	157	6.483216348047	1
3	162	6.917548995043	1
3	171	8.054881797456	1
3	183	9.903471540669	1
3	186	9.966785513898	1
3	195	11.203368038366	1
3	206	12.636374685952	1
3	213	13.487355804356	1
3	220	14.300461223757	1
3	223	14.375285764811	1
3	229	14.849526199282	1
3	239	16.307744328285	1
3	247	17.308046795098	1
3	256	18.572940220557	1
3	262	19.148789010188	1
3	266	19.266066750093	1
3	273	20.133802891845	1
3	279	20.784180153602	1
3	286	21.509774177271	1
3	289	21.523226778697	1
3	303	23.804029392566	1
3	307	23.88471556387	1
3	324	26.791717847991	1
3	329	27.038935276986	1
3	336	28.017538140537	1
3	340	28.129254372486	1
3	343	28.145810469222	1
3	351	29.070678343142	1
3	362	30.722875602872	1
3	370	31.83129634229	1
3	375	32.175263457448	1
3	380	32.449918954673	1
3	383	32.586649099496	1
3	388	32.836182520195	1
3	391	32.984491639533	1
3	395	33.061453010132	1
3	404	34.358288520297	1
3	407	34.415285569262	1
3	411	34.524869148932	1
3	418	35.335626231059	1
3	426	36.304712744325	1
3	432	36.899560158932	1
3	437	37.328506804323	1
3	440	37.365741073916	1
3	448	38.35977558014	1
3	453	38.784574437318	1
3	456	38.814438221331	1
3	461	39.148293608002	1
3	467	39.779420099115	1
3	476	41.003848901752	1
3	481	41.383607130937	1
3	488	42.206060918678	1
3	499	43.687725978321	1
3	505	44.286677726958	1
3	508	44.333214924219	1
3	514	44.855697380708	1
3	519	45.314650178758	1
3	532	47.250310833399	1
3	537	47.656764193094	1
3	554	50.463456247209	1
3	560	51.201872333823	1
3	565	51.470043726204	1
3	570	51.901576651554	1
3	574	52.079853426578	1
3	578	52.441991298824	1
3	587	53.476644141508	1
3	591	53.806765126759	1
3	594	53.849538281296	1
3	598	53.878109409276	1
3	602	54.17290077756	1
3	606	54.314853994088	1
3	609	54.362040880439	1
3	614	54.782674597323	1
3	618	55.032751096519	1
3	622	55.057218655862	1
3	625	55.104657069305	1
3	628	55.108568609438	1
3	632	55.331428737599	1
3	643	57.005210114496	1
3	651	58.019944222541	1
3	658	58.755580177961	1
3	669	60.288345903502	1
3	686	63.177258094523	1
3	694	64.199844003627	1
3	699	64.612074493385	1
3	705	65.148404143465	1
3	714	66.275919595657	1
3	720	66.898073988879	1
3	723	66.931880327878	1
3	727	67.223475412649	1
3	735	68.108912050035	1
3	738	68.22910072365	1
3	742	68.427668667179	1
3	747	68.8002020599	1
3	762	71.256044160248	1
3	770	72.113948379446	1
3	776	72.825752068203	1
3	779	72.867970912832	1
3	799	76.182816857096	1
3	802	76.196434960803	1
3	806	76.447213851618	1
3	814	77.404053952478	1
3	822	78.41543937918	1
3	826	78.647233531623	1
3	830	78.804417429613	1
3	837	79.589527252281	1
3	850	81.551318515342	1
3	857	82.413720557711	1
3	861	82.678646157117	1
3	873	84.434712298544	1
3	879	84.887566447917	1
3	883	85.219958998304	1
3	890	86.048700862434	1
3	895	86.337202933325	1
3	899	86.639506168535	1
3	908	87.707341114601	1
3	911	87.819565018047	1
3	919	88.759469297398	1
3	922	88.795846440214	1
3	928	89.483104996676	1
3	935	90.166940669384	1
3	943	91.249731100777	1
3	946	91.276396165088	1
3	953	91.944480882287	1
3	957	92.112736890007	1
3	970	94.164745126668	1
3	975	94.562157986999	1
3	979	94.826238082596	1
3	983	95.04382288814	1
3	991	95.915066921019	1
3	998	96.763226607833	1
3	1011	98.708289201351	1
3	1015	98.917115808322	1
3	1019	99.181673956704	1
3	1022	99.24739328977	1
3	1028	99.862164532411	1
3	1043	102.230708946224	1
3	1048	102.526579990064	1
3	1051	102.587585402459	1
3	1056	102.989963101511	1
3	1060	103.213004381203	1
3	1063	103.263680784289	1
3	1067	103.339810198266	1
3	1070	103.352506579406	1
3	1073	103.450202174548	1
3	1081	104.376879130453	1
3	1087	104.99103219742	1
3	1092	105.382895289952	1
3	1096	105.703436258488	1
3	1103	106.337231688993	1
3	1107	106.700694748858	1
3	1115	107.576171424336	1
3	1120	108.09373695868	1
3	1125	108.446313468673	1
3	1130	108.773701201999	1
3	1134	109.071570877569	1
3	1139	109.413800862355	1
3	1143	109.534154960317	1
3	1154	111.209502653301	1
3	1162	112.236021598624	1
3	1170	113.112660154353	1
3	1178	114.276150727824	1
3	1183	114.526076198885	1
3	1190	115.387365210057	1
3	1193	115.40330021792	1
3	1203	116.756470812917	1
3	1212	118.041412726098	1
3	1219	118.720197628507	1
3	1222	118.913949173697	1
3	1229	119.688063612362	1
3	1235	120.158901873904	1
3	1238	120.298296985832	1
3	1242	120.440344515053	1
3	1250	121.388976597355	1
3	1255	121.856800907985	1
3	1259	122.121084461314	1
3	1263	122.145539450412	1
3	1267	122.520056995118	1
3	1273	123.106657046335	1
3	1278	123.35625864299	1
3	1281	123.429972056867	1
3	1287	123.975972350799	1
3	1291	124.128607856571	1
3	1297	124.827339010939	1
3	1306	126.106830909157	1
3	1312	126.663868682571	1
3	1319	127.471696307182	1
3	1323	127.720646400946	1
3	1327	127.912543432224	1
3	1331	128.072381586932	1
3	1338	128.911853658128	1
3	1347	130.123410512282	1
3	1358	131.713016067576	1
3	1363	131.946867959069	1
3	1372	133.307313189783	1
3	1377	133.682133192368	1
3	1386	134.754101234494	1
3	1389	134.816414382171	1
3	1392	134.932239975028	1
3	1397	135.164988554621	1
3	1401	135.446375182366	1
3	1404	135.504609237927	1
3	1408	135.621444074611	1
3	1412	135.895196489972	1
3	1416	135.995941800742	1
3	1423	136.798995341035	1
3	1426	136.848525762591	1
3	1441	139.220010898849	1
3	1446	139.588744913958	1
3	1452	140.226673765359	1
3	1457	140.708559754769	1
3	1461	140.912501902661	1
3	1466	141.149113261935	1
3	1472	141.844077812343	1
3	1483	143.521151519512	1
3	1490	144.162162672851	1
3	1497	145.070608036298	1
3	1506	146.205965176537	1
3	1510	146.441727760414	1
3	1515	146.937621316704	1
3	1522	147.714598217017	1
3	1533	149.287914665461	1
3	1541	150.275448336545	1
3	1546	150.624501441306	1
3	1551	151.02384578122	1
3	1555	151.242853454521	1
3	1561	151.918136567642	1
3	1567	152.393874234947	1
3	1577	153.830417780829	1
3	1588	155.49236086311	1
3	1592	155.616438007301	1
3	1599	156.453009426464	1
3	1611	158.308440498786	1
3	1616	158.751120848172	1
3	1625	159.949655202322	1
3	1631	160.396954251108	1
3	1634	160.505779269927	1
3	1641	161.185794911943	1
3	1646	161.714924533279	1
3	1651	162.10088982044	1
3	1660	163.174268155396	1
3	1665	163.694222495583	1
3	1673	164.565705798924	1
3	1687	166.870943416909	1
3	1691	167.122857784048	1
3	1703	168.8741854321	1
3	1714	170.453769130898	1
3	1723	171.647737637417	1
3	1728	172.012506351295	1
3	1731	172.100825101157	1
3	1744	174.0844474242	1
3	1750	174.612965714026	1
3	1754	174.960518469624	1
3	1759	175.257165717789	1
3	1766	176.141229839554	1
3	1777	177.719492986191	1
3	1781	177.951499765042	1
3	1786	178.196166303505	1
3	1790	178.383589987635	1
3	1801	180.119260361614	1
3	1806	180.464768584633	1
3	1810	180.641739551376	1
3	1813	180.775575683786	1
3	1818	181.130086427393	1
3	1825	181.854555384121	1
3	1838	183.946217973896	1
3	1844	184.385046029956	1
3	1849	184.97334194301	1
3	1856	185.652374333848	1
3	1868	187.401157453018	1
3	1871	187.513539550279	1
3	1877	188.016660701401	1
3	1887	189.574298147846	1
3	1891	189.742530167581	1
3	1895	189.797317171744	1
3	1902	190.608610696202	1
3	1906	190.842237662472	1
3	1911	191.321451896284	1
3	1914	191.321563870075	1
3	1919	191.779263885971	1
3	1923	191.972422142767	1
3	1927	192.067805384379	1
3	1931	192.278041707959	1
3	1934	192.379805454371	1
3	1946	194.019954339392	1
3	1957	195.744816894894	1
3	1962	196.06108880969	1
3	1975	198.092267846925	1
3	1978	198.116224312097	1
4	7	0.129206927313	1
4	10	0.175195567897	1
4	12	0.187979365877	2
4	36	0.898293011456	2
4	57	1.302699748899	1
4	64	1.442979497632	1
4	85	2.281963057724	1
4	108	3.976851901931	1
4	119	4.331152782965	1
4	124	4.403385516726	1
4	141	4.83525724539	2
4	144	5.001535249662	3
4	148	5.009896321962	4
4	158	6.483216348047	5
4	163	6.917548995043	6
4	172	8.054881797456	7
4	184	9.903471540669	8
4	187	9.966785513898	9
4	196	11.203368038366	10
4	207	12.636374685952	11
4	214	13.487355804356	12
4	221	14.300461223757	13
4	224	14.375285764811	14
4	230	14.849526199282	15
4	240	16.307744328285	16
4	248	17.308046795098	17
4	257	18.572940220557	18
4	263	19.148789010188	19
4	267	19.266066750093	20
4	274	20.133802891845	21
4	280	20.784180153602	22
4	287	21.509774177271	23
4	290	21.523226778697	24
4	304	23.804029392566	25
4	308	23.88471556387	26
4	325	26.791717847991	27
4	330	27.038935276986	28
4	337	28.017538140537	29
4	341	28.129254372486	30
4	344	28.145810469222	31
4	352	29.070678343142	32
4	363	30.722875602872	33
4	371	31.83129634229	34
4	376	32.175263457448	35
4	381	32.449918954673	36
4	384	32.586649099496	37
4	389	32.836182520195	38
4	392	32.984491639533	39
4	396	33.061453010132	40
4	405	34.358288520297	41
4	408	34.415285569262	42
4	412	34.524869148932	43
4	419	35.335626231059	44
4	427	36.304712744325	45
4	433	36.899560158932	46
4	438	37.328506804323	47
4	441	37.365741073916	48
4	449	38.35977558014	49
4	454	38.784574437318	50
4	457	38.814438221331	51
4	462	39.148293608002	52
4	468	39.779420099115	53
4	477	41.003848901752	54
4	482	41.383607130937	55
4	489	42.206060918678	56
4	500	43.687725978321	57
4	506	44.286677726958	58
4	509	44.333214924219	59
4	515	44.855697380708	60
4	520	45.314650178758	61
4	533	47.250310833399	62
4	538	47.656764193094	63
4	555	50.463456247209	64
4	561	51.201872333823	65
4	566	51.470043726204	66
4	571	51.901576651554	67
4	575	52.079853426578	68
4	579	52.441991298824	69
4	588	53.476644141508	70
4	592	53.806765126759	71
4	595	53.849538281296	72
4	599	53.878109409276	73
4	603	54.17290077756	74
4	607	54.314853994088	75
4	610	54.362040880439	76
4	615	54.782674597323	77
4	619	55.032751096519	78
4	623	55.057218655862	79
4	626	55.104657069305	80
4	629	55.108568609438	81
4	633	55.331428737599	82
4	644	57.005210114496	83
4	652	58.019944222541	84
4	659	58.755580177961	85
4	670	60.288345903502	86
4	687	63.177258094523	87
4	695	64.199844003627	88
4	700	64.612074493385	89
4	706	65.148404143465	90
4	715	66.275919595657	91
4	721	66.898073988879	92
4	724	66.931880327878	93
4	728	67.223475412649	94
4	736	68.108912050035	95
4	739	68.22910072365	96
4	743	68.427668667179	97
4	748	68.8002020599	98
4	763	71.256044160248	99
4	771	72.113948379446	100
4	777	72.825752068203	101
4	780	72.867970912832	102
4	800	76.182816857096	103
4	803	76.196434960803	104
4	807	76.447213851618	105
4	815	77.404053952478	106
4	823	78.41543937918	107
4	827	78.647233531623	108
4	831	78.804417429613	109
4	838	79.589527252281	110
4	851	81.551318515342	111
4	858	82.413720557711	112
4	862	82.678646157117	113
4	874	84.434712298544	114
4	880	84.887566447917	115
4	884	85.219958998304	116
4	891	86.048700862434	117
4	896	86.337202933325	118
4	900	86.639506168535	119
4	909	87.707341114601	120
4	912	87.819565018047	121
4	920	88.759469297398	122
4	923	88.795846440214	123
4	929	89.483104996676	124
4	936	90.166940669384	125
4	944	91.249731100777	126
4	947	91.276396165088	127
4	954	91.944480882287	128
4	958	92.112736890007	129
4	971	94.164745126668	130
4	976	94.562157986999	131
4	980	94.826238082596	132
4	984	95.04382288814	133
4	992	95.915066921019	134
4	999	96.763226607833	135
4	1012	98.708289201351	136
4	1016	98.917115808322	137
4	1020	99.181673956704	138
4	1023	99.24739328977	139
4	1029	99.862164532411	140
4	1044	102.230708946224	141
4	1049	102.526579990064	142
4	1052	102.587585402459	143
4	1057	102.989963101511	144
4	1061	103.213004381203	145
4	1064	103.263680784289	146
4	1068	103.339810198266	147
4	1071	103.352506579406	148
4	1074	103.450202174548	149
4	1082	104.376879130453	150
4	1088	104.99103219742	151
4	1093	105.382895289952	152
4	1097	105.703436258488	153
4	1104	106.337231688993	154
4	1108	106.700694748858	155
4	1116	107.576171424336	156
4	1121	108.09373695868	157
4	1126	108.446313468673	158
4	1131	108.773701201999	159
4	1135	109.071570877569	160
4	1140	109.413800862355	161
4	1144	109.534154960317	162
4	1155	111.209502653301	163
4	1163	112.236021598624	164
4	1171	113.112660154353	165
4	1179	114.276150727824	166
4	1184	114.526076198885	167
4	1191	115.387365210057	168
4	1194	115.40330021792	169
4	1204	116.756470812917	170
4	1213	118.041412726098	171
4	1220	118.720197628507	172
4	1223	118.913949173697	173
4	1230	119.688063612362	174
4	1236	120.158901873904	175
4	1239	120.298296985832	176
4	1243	120.440344515053	177
4	1251	121.388976597355	178
4	1256	121.856800907985	179
4	1260	122.121084461314	180
4	1264	122.145539450412	181
4	1268	122.520056995118	182
4	1274	123.106657046335	183
4	1279	123.35625864299	184
4	1282	123.429972056867	185
4	1288	123.975972350799	186
4	1292	124.128607856571	187
4	1298	124.827339010939	188
4	1307	126.106830909157	189
4	1313	126.663868682571	190
4	1320	127.471696307182	191
4	1324	127.720646400946	192
4	1328	127.912543432224	193
4	1332	128.072381586932	194
4	1339	128.911853658128	195
4	1348	130.123410512282	196
4	1359	131.713016067576	197
4	1364	131.946867959069	198
4	1373	133.307313189783	199
4	1378	133.682133192368	200
4	1387	134.754101234494	201
4	1390	134.816414382171	202
4	1393	134.932239975028	203
4	1398	135.164988554621	204
4	1402	135.446375182366	205
4	1405	135.504609237927	206
4	1409	135.621444074611	207
4	1413	135.895196489972	208
4	1417	135.995941800742	209
4	1424	136.798995341035	210
4	1427	136.848525762591	211
4	1442	139.220010898849	212
4	1447	139.588744913958	213
4	1453	140.226673765359	214
4	1458	140.708559754769	215
4	1462	140.912501902661	216
4	1467	141.149113261935	217
4	1473	141.844077812343	218
4	1484	143.521151519512	219
4	1491	144.162162672851	220
4	1498	145.070608036298	221
4	1507	146.205965176537	222
4	1511	146.441727760414	223
4	1516	146.937621316704	224
4	1523	147.714598217017	225
4	1534	149.287914665461	226
4	1542	150.275448336545	227
4	1547	150.624501441306	228
4	1552	151.02384578122	229
4	1556	151.242853454521	230
4	1562	151.918136567642	231
4	1568	152.393874234947	232
4	1578	153.830417780829	233
4	1589	155.49236086311	234
4	1593	155.616438007301	235
4	1600	156.453009426464	236
4	1612	158.308440498786	237
4	1617	158.751120848172	238
4	1626	159.949655202322	239
4	1632	160.396954251108	240
4	1635	160.505779269927	241
4	1642	161.185794911943	242
4	1647	161.714924533279	243
4	1652	162.10088982044	244
4	1661	163.174268155396	245
4	1666	163.694222495583	246
4	1674	164.565705798924	247
4	1688	166.870943416909	248
4	1692	167.122857784048	249
4	1704	168.8741854321	250
4	1715	170.453769130898	251
4	1724	171.647737637417	252
4	1729	172.012506351295	253
4	1732	172.100825101157	254
4	1745	174.0844474242	255
4	1751	174.612965714026	256
4	1755	174.960518469624	257
4	1760	175.257165717789	258
4	1767	176.141229839554	259
4	1778	177.719492986191	260
4	1782	177.951499765042	261
4	1787	178.196166303505	262
4	1791	178.383589987635	263
4	1802	180.119260361614	264
4	1807	180.464768584633	265
4	1811	180.641739551376	266
4	1814	180.775575683786	267
4	1819	181.130086427393	268
4	1826	181.854555384121	269
4	1839	183.946217973896	270
4	1845	184.385046029956	271
4	1850	184.97334194301	272
4	1857	185.652374333848	273
4	1869	187.401157453018	274
4	1872	187.513539550279	275
4	1878	188.016660701401	276
4	1888	189.574298147846	277
4	1892	189.742530167581	278
4	1896	189.797317171744	279
4	1903	190.608610696202	280
4	1907	190.842237662472	281
4	1912	191.321451896284	282
4	1915	191.321563870075	283
4	1920	191.779263885971	284
4	1924	191.972422142767	285
4	1928	192.067805384379	286
4	1932	192.278041707959	287
4	1935	192.379805454371	288
4	1947	194.019954339392	289
4	1958	195.744816894894	290
4	1963	196.06108880969	291
4	1976	198.092267846925	292
4	1979	198.116224312097	293
5	8	0.129206927313	1
5	14	0.229206927313	2
5	37	0.898293011456	3
5	38	0.998293011456	4
5	58	1.302699748899	5
5	65	1.442979497632	6
5	86	2.281963057724	7
5	109	3.976851901931	8
5	120	4.331152782965	9
6	15	0.229306927313	1
6	18	0.329306927313	1
6	39	0.998393011456	1
6	43	1.098393011456	1
6	61	1.402799748899	1
6	72	1.543079497632	1
6	88	2.382063057724	1
6	112	4.076951901931	1
6	131	4.431252782965	1
7	20	0.329406927313	1
7	24	0.429406927313	1
7	45	1.098493011456	1
7	48	1.198493011456	1
7	69	1.502899748899	1
7	76	1.643179497632	1
7	92	2.482163057724	1
7	115	4.177051901931	1
7	134	4.531352782965	1
8	29	0.529406927313	0.4002
8	32	0.729406927313	0.554211359416
8	54	1.298493011456	1.110513645579
8	66	1.498493011456	0.6002
8	77	1.702899748899	0.4002
8	80	1.902899748899	0.459920251267
8	95	2.682163057724	0.4002
8	121	4.377051901931	0.4002
8	137	4.731352782965	0.4002
9	29	0.529406927313	1
9	32	0.729406927313	1
9	54	1.298493011456	1
9	66	1.498493011456	1
9	77	1.702899748899	1
9	80	1.902899748899	1
9	95	2.682163057724	1
9	121	4.377051901931	1
9	137	4.731352782965	1

