version 3
run FeedbackVersion-4-20240511-20:45:11-11876
attr configname FeedbackVersion
attr datetime 20240511-20:45:11
attr datetimef 20240511-204511
attr experiment FeedbackVersion
attr inifile omnetpp.ini
attr iterationvars $genInterval=0.3
attr iterationvarsd genInterval=0.3
attr iterationvarsf genInterval=0.3-
attr measurement $genInterval=0.3
attr network NetworkFV
attr processid 11876
attr repetition 0
attr replication #0
attr resultdir results
attr runnumber 4
attr seedset 4
itervar genInterval 0.3
config network NetworkFV
config sim-time-limit 200s
config NetworkFV.nodeTx.gen.generationInterval exponential(0.3)
config NetworkFV.nodeTx.gen.packetByteSize 12500
config NetworkFV.queueOne.bufferSize 200
config NetworkFV.nodeRx.queue.bufferSize 200
config NetworkFV.nodeTx.queue.bufferSize 2000000
config NetworkFV.queueZero.bufferSize 200

vector 0 NetworkFV.nodeRx.queue PacketsLost ETV
vector 1 NetworkFV.nodeRx.queue PacketsAsked ETV
vector 2 NetworkFV.queueOne bufferSize ETV
vector 3 NetworkFV.nodeTx.gen packetGen ETV
vector 4 NetworkFV.nodeTx.queue BufferSize ETV
vector 5 NetworkFV.nodeTx.queue PacketsSent ETV
vector 6 NetworkFV.queueZero bufferSize ETV
vector 7 NetworkFV.nodeRx.queue BufferSize ETV
vector 8 NetworkFV.nodeRx.sink Delay ETV
vector 9 NetworkFV.nodeRx.sink packetUsed ETV
0	1	0	1
0	6	0.2	1
0	7	0.4	1
0	8	0.6	1
0	9	0.8	1
0	10	1	1
0	17	1.2	1
0	36	1.6002	1
0	40	1.8004	1
0	79	2.6012	1
0	80	2.8014	1
0	81	3.0016	1
0	88	3.2018	1
0	95	3.6022	1
0	102	3.8024	1
0	114	4.0026	1
0	123	4.2028	1
0	152	4.8034	1
0	194	5.6042	1
0	197	5.8044	1
0	198	6.0046	1
0	202	6.2048	1
0	235	6.8054	1
0	251	7.2058	1
0	254	7.406	1
0	264	7.6062	1
0	282	8.0066	1
0	296	8.407	1
0	330	9.2078	1
0	346	9.408	1
0	358	9.8084	1
0	361	10.0086	1
0	362	10.2088	1
0	363	10.409	1
0	364	10.6092	1
0	375	10.8094	1
0	388	11.0096	1
0	430	11.8104	1
0	439	12.0106	1
0	503	13.2118	1
0	506	13.412	1
0	509	13.6122	1
0	516	13.8124	1
0	530	14.2128	1
0	562	15.0136	1
0	567	15.2138	1
0	576	15.414	1
0	590	15.8144	1
0	606	16.2148	1
0	607	16.415	1
0	611	16.6152	1
0	621	17.0156	1
0	625	17.2158	1
0	700	18.417	1
0	703	18.6172	1
0	712	18.8174	1
0	744	19.6182	1
0	767	20.2188	1
0	768	20.419	1
0	776	20.6192	1
0	798	21.2198	1
0	802	21.42	1
0	812	21.8204	1
0	813	22.0206	1
0	817	22.2208	1
0	832	22.421	1
0	835	22.6212	1
0	839	22.8214	1
0	895	23.6222	1
0	925	24.2228	1
0	1023	25.8244	1
0	1113	27.2258	1
0	1194	28.6272	1
0	1206	29.0276	1
0	1212	29.2278	1
0	1223	29.6282	1
0	1226	29.8284	1
0	1236	30.0286	1
0	1270	30.6292	1
0	1283	31.0296	1
0	1320	31.6302	1
0	1329	31.8304	1
0	1352	32.431	1
0	1361	32.6312	1
0	1369	33.0316	1
0	1372	33.2318	1
0	1383	33.432	1
0	1413	34.0326	1
0	1419	34.2328	1
0	1429	34.6332	1
0	1433	34.8334	1
0	1464	35.434	1
0	1471	35.8344	1
0	1475	36.0346	1
0	1507	36.8354	1
0	1511	37.0356	1
0	1534	37.436	1
0	1556	38.0366	1
0	1565	38.2368	1
0	1575	38.6372	1
0	1588	39.0376	1
0	1598	39.438	1
0	1606	39.6382	1
0	1619	40.0386	1
0	1635	40.439	1
0	1674	41.0396	1
0	1734	42.2408	1
0	1745	42.6412	1
0	1754	42.8414	1
0	1809	43.8424	1
0	1812	44.0426	1
0	1821	44.2428	1
0	1865	45.0436	1
0	1884	45.6442	1
0	1885	45.8444	1
0	1895	46.0446	1
0	1925	46.6452	1
0	1983	47.8464	1
0	1996	48.0466	1
0	2015	48.6472	1
0	2016	48.8474	1
0	2023	49.0476	1
0	2048	49.6482	1
0	2057	49.8484	1
0	2068	50.2488	1
0	2075	50.449	1
0	2104	51.0496	1
0	2118	51.45	1
0	2131	51.8504	1
0	2163	52.451	1
0	2170	52.8514	1
0	2171	53.0516	1
0	2178	53.2518	1
0	2185	53.6522	1
0	2186	53.8524	1
0	2197	54.0526	1
0	2228	54.6532	1
0	2251	55.2538	1
0	2252	55.454	1
0	2259	55.6542	1
0	2285	56.2548	1
0	2330	57.0556	1
0	2333	57.2558	1
0	2339	57.456	1
0	2373	58.0566	1
0	2384	58.457	1
0	2393	58.6572	1
0	2421	59.2578	1
0	2476	60.0586	1
0	2504	60.6592	1
0	2522	61.2598	1
0	2525	61.46	1
0	2528	61.6602	1
0	2534	61.8604	1
0	2566	62.6612	1
0	2575	62.8614	1
0	2586	63.2618	1
0	2589	63.462	1
0	2593	63.6622	1
0	2610	64.0626	1
0	2638	64.6632	1
0	2648	65.0636	1
0	2658	65.464	1
0	2665	65.6642	1
0	2774	67.466	1
0	2789	67.8664	1
0	2803	68.2668	1
0	2826	68.8674	1
0	2827	69.0676	1
0	2834	69.2678	1
0	2841	69.6682	1
0	2846	69.8684	1
0	2850	70.0686	1
0	2860	70.469	1
0	2861	70.6692	1
0	2865	70.8694	1
0	2890	71.47	1
0	2897	71.6702	1
0	2906	71.8704	1
0	2921	72.0706	1
0	2927	72.2708	1
0	2958	72.8714	1
0	2977	73.2718	1
0	2990	73.6722	1
0	2991	73.8724	1
0	2992	74.0726	1
0	2993	74.2728	1
0	2999	74.473	1
0	3020	75.0736	1
0	3027	75.2738	1
0	3028	75.474	1
0	3039	75.6742	1
0	3056	75.8744	1
0	3087	76.475	1
0	3124	77.2758	1
0	3130	77.476	1
0	3175	78.477	1
0	3178	78.6772	1
0	3185	78.8774	1
0	3241	79.8784	1
0	3259	80.479	1
0	3262	80.6792	1
0	3269	80.8794	1
0	3293	81.48	1
0	3342	82.481	1
0	3348	82.6812	1
0	3364	83.0816	1
0	3371	83.482	1
0	3372	83.6822	1
0	3376	83.8824	1
0	3434	84.8834	1
0	3446	85.2838	1
0	3453	85.484	1
0	3486	86.2848	1
0	3487	86.485	1
0	3494	86.6852	1
0	3525	87.486	1
0	3526	87.6862	1
0	3533	87.8864	1
0	3556	88.487	1
0	3562	88.6872	1
0	3615	89.6882	1
0	3624	89.8884	1
0	3643	90.489	1
0	3644	90.6892	1
0	3645	90.8894	1
0	3646	91.0896	1
0	3651	91.2898	1
0	3658	91.49	1
0	3665	91.8904	1
0	3671	92.0906	1
0	3691	92.491	1
0	3695	92.6912	1
0	3793	94.493	1
0	3807	94.8934	1
0	3822	95.2938	1
0	3832	95.6942	1
0	3839	95.8944	1
0	3864	96.495	1
0	3901	97.2958	1
0	3904	97.496	1
0	3909	97.6962	1
0	3910	97.8964	1
0	3911	98.0966	1
0	3912	98.2968	1
0	3913	98.497	1
0	3920	98.6972	1
0	3941	98.8974	1
0	3954	99.018750059033	1
0	3955	99.0976	1
0	3958	99.2978	1
0	3967	99.498	1
0	3987	99.8984	1
0	4030	100.6992	1
0	4033	100.8994	1
0	4039	101.0996	1
0	4049	101.5	1
0	4053	101.7002	1
0	4063	102.1006	1
0	4068	102.3008	1
0	4073	102.501	1
0	4098	103.1016	1
0	4099	103.3018	1
0	4100	103.502	1
0	4101	103.7022	1
0	4110	103.9024	1
0	4125	104.3028	1
0	4134	104.503	1
0	4149	104.9034	1
0	4172	105.3038	1
0	4191	105.7042	1
0	4226	106.505	1
0	4233	106.7052	1
0	4251	107.3058	1
0	4258	107.506	1
0	4288	108.3068	1
0	4289	108.507	1
0	4294	108.7072	1
0	4301	108.9074	1
0	4308	109.3078	1
0	4309	109.508	1
0	4315	109.7082	1
0	4346	110.3088	1
0	4349	110.509	1
0	4350	110.7092	1
0	4351	110.9094	1
0	4352	111.1096	1
0	4356	111.3098	1
0	4383	111.7034909714	1
0	4384	111.7102	1
0	4387	111.9104	1
0	4393	112.1106	1
0	4518	113.9124	1
0	4527	114.1126	1
0	4545	114.513	1
0	4601	115.514	1
0	4614	115.9144	1
0	4617	116.1146	1
0	4623	116.3148	1
0	4651	116.9154	1
0	4677	117.516	1
0	4687	117.9164	1
0	4688	118.1166	1
0	4689	118.3168	1
0	4690	118.517	1
0	4691	118.7172	1
0	4699	118.9174	1
0	4713	119.1176	1
0	4716	119.3178	1
0	4720	119.518	1
0	4734	119.9184	1
0	4735	120.1186	1
0	4746	120.3188	1
0	4769	120.7192	1
0	4806	121.3198	1
0	4831	121.9204	1
0	4834	122.1206	1
0	4840	122.3208	1
0	4852	122.7212	1
0	4853	122.9214	1
0	4866	123.1216	1
0	4877	123.522	1
0	4883	123.7222	1
0	4919	124.523	1
0	4920	124.7232	1
0	4924	124.9234	1
0	4951	125.3238	1
0	5063	127.1256	1
0	5090	127.7262	1
0	5096	127.9264	1
0	5148	128.9274	1
0	5173	129.3278	1
0	5192	129.9284	1
0	5198	130.1286	1
0	5237	130.9294	1
0	5240	131.1296	1
0	5241	131.3298	1
0	5253	131.53	1
0	5321	132.7312	1
0	5324	132.9314	1
0	5327	133.1316	1
0	5333	133.3318	1
0	5352	133.9324	1
0	5353	134.1326	1
0	5367	134.3328	1
0	5390	134.9334	1
0	5393	135.1336	1
0	5397	135.3338	1
0	5416	135.7342	1
0	5433	136.3348	1
0	5434	136.535	1
0	5435	136.7352	1
0	5439	136.9354	1
0	5459	137.3358	1
0	5474	137.7362	1
0	5485	138.1366	1
0	5488	138.3368	1
0	5492	138.537	1
0	5517	139.1376	1
0	5518	139.3378	1
0	5522	139.538	1
0	5535	139.9384	1
0	5556	140.539	1
0	5560	140.7392	1
0	5583	141.1396	1
0	5622	141.7402	1
0	5634	142.1406	1
0	5643	142.3408	1
0	5659	142.7412	1
0	5675	143.1416	1
0	5682	143.542	1
0	5683	143.7422	1
0	5684	143.9424	1
0	5685	144.1426	1
0	5690	144.3428	1
0	5691	144.543	1
0	5692	144.7432	1
0	5701	144.9434	1
0	5712	145.3438	1
0	5720	145.544	1
0	5740	145.7442	1
0	5865	147.3458	1
0	5888	147.9464	1
0	5897	148.1466	1
0	5962	149.3478	1
0	5997	150.1486	1
0	6003	150.3488	1
0	6014	150.7492	1
0	6017	150.9494	1
0	6020	151.1496	1
0	6025	151.3498	1
0	6026	151.55	1
0	6033	151.7502	1
0	6093	152.9514	1
0	6101	153.1516	1
0	6134	153.7522	1
0	6161	154.3528	1
0	6167	154.553	1
0	6241	155.9544	1
0	6279	156.555	1
0	6325	157.556	1
0	6333	157.7562	1
0	6371	158.557	1
0	6379	158.7572	1
0	6427	159.7582	1
0	6450	160.3588	1
0	6480	161.1596	1
0	6491	161.3598	1
0	6543	162.3608	1
0	6551	162.7612	1
0	6563	162.9614	1
0	6623	164.3628	1
0	6624	164.563	1
0	6633	164.7632	1
0	6668	165.3638	1
0	6689	165.9644	1
0	6712	166.565	1
0	6713	166.7652	1
0	6714	166.9654	1
0	6721	167.1656	1
0	6732	167.566	1
0	6741	167.7662	1
0	6752	168.1666	1
0	6758	168.3668	1
0	6784	168.9674	1
0	6788	169.1676	1
0	6801	169.568	1
0	6853	170.3688	1
0	6878	170.9694	1
0	6887	171.1696	1
0	6906	171.7702	1
0	6913	171.9704	1
0	6936	172.571	1
0	6937	172.7712	1
0	6938	172.9714	1
0	6939	173.1716	1
0	6946	173.3718	1
0	6953	173.7722	1
0	6958	173.9724	1
0	6967	174.1726	1
0	6978	174.573	1
0	6987	174.7732	1
0	6994	175.1736	1
0	6995	175.3738	1
0	7000	175.574	1
0	7009	175.7742	1
0	7024	175.9744	1
0	7027	176.1746	1
0	7030	176.3748	1
0	7031	176.575	1
0	7038	176.7752	1
0	7053	177.1756	1
0	7056	177.3758	1
0	7060	177.576	1
0	7078	177.9764	1
0	7095	178.3768	1
0	7098	178.577	1
0	7099	178.7772	1
0	7103	178.9774	1
0	7207	180.7792	1
0	7213	180.9794	1
0	7259	181.9804	1
0	7262	182.1806	1
0	7263	182.3808	1
0	7264	182.581	1
0	7277	182.7812	1
0	7302	183.3818	1
0	7336	183.9824	1
0	7362	184.583	1
0	7365	184.7832	1
0	7368	184.9834	1
0	7375	185.1836	1
0	7398	185.7842	1
0	7404	185.9844	1
0	7450	186.7852	1
0	7494	187.586	1
0	7506	187.7862	1
0	7571	188.9874	1
0	7574	189.1876	1
0	7583	189.3878	1
0	7602	189.9884	1
0	7613	190.1886	1
0	7639	190.7892	1
0	7646	190.9894	1
0	7652	191.1896	1
0	7665	191.59	1
0	7675	191.9904	1
0	7686	192.1906	1
0	7736	193.1916	1
0	7739	193.3918	1
0	7742	193.592	1
0	7743	193.7922	1
0	7744	193.9924	1
0	7748	194.1926	1
0	7805	195.1936	1
0	7808	195.3938	1
0	7814	195.594	1
0	7883	196.9954	1
0	7892	197.1956	1
0	7915	197.7962	1
0	7916	197.9964	1
0	7923	198.1966	1
0	7963	199.1976	1
0	7967	199.3978	1
0	7977	199.7982	1
0	7985	199.9984	1
1	1	0	2
1	17	1.2	1
1	23	1.223845695755	0
1	29	1.4	1
1	45	1.916491404947	2
1	69	2.254204200535	3
1	102	3.8024	1
1	108	3.871761492565	1
1	125	4.24814769467	2
1	154	4.888818544298	3
1	186	5.361878494307	5
1	241	6.940803198289	8
1	330	9.2078	4
1	364	10.6092	1
1	377	10.836914555671	1
1	395	11.114916844937	2
1	420	11.417757016163	3
1	455	12.291961955989	4
1	493	12.825708783341	7
1	562	15.0136	3
1	597	15.928894281047	3
1	642	17.580031240579	5
1	692	18.211745277627	8
1	768	20.419	4
1	817	22.2208	1
1	826	22.40516206433	1
1	844	22.946172110017	2
1	877	23.267424817693	3
1	914	23.869397368243	4
1	955	24.627828251493	6
1	1005	25.493335726998	10
1	1095	26.896647785042	14
1	1226	29.8284	7
1	1312	31.352541516286	7
1	1372	33.2318	3
1	1405	33.811312823131	3
1	1448	35.131888423095	5
1	1519	37.189055788373	8
1	1598	39.438	4
1	1653	40.781567735987	4
1	1692	41.405958034526	6
1	1756	42.87210026325	9
1	1854	44.735895717887	14
1	1983	47.8464	7
1	2057	49.8484	2
1	2077	50.465064767356	2
1	2106	51.129331727358	3
1	2148	52.192944059485	5
1	2186	53.8524	2
1	2216	54.452908267775	2
1	2241	54.879052140021	4
1	2292	56.304424039868	6
1	2357	57.826629332756	9
1	2460	59.780466794676	13
1	2534	61.8604	6
1	2598	63.804821397629	6
1	2688	65.889585472772	10
1	2776	67.552061122423	15
1	2841	69.6682	7
1	2890	71.47	2
1	2916	72.066745076903	2
1	2940	72.5671508915	3
1	2981	73.321487597491	5
1	3020	75.0736	2
1	3046	75.790132628514	2
1	3073	76.154536018263	4
1	3114	76.946604842379	6
1	3187	78.89829922698	9
1	3295	81.517009853355	14
1	3376	83.8824	7
1	3458	85.563979075257	7
1	3533	87.8864	3
1	3571	88.816136899713	3
1	3594	89.179069088713	5
1	3646	91.0896	2
1	3682	92.224444134863	2
1	3706	92.925429191967	4
1	3742	93.529602908266	6
1	3809	94.986189914185	9
1	3904	97.496	4
1	3920	98.6972	1
1	3929	98.777168138171	1
1	3943	98.914039133544	2
1	3969	99.569399646326	3
1	4007	100.119680118099	5
1	4063	102.1006	2
1	4089	102.873578984048	2
1	4117	104.012572285997	3
1	4156	105.020691256975	5
1	4216	106.142544580394	8
1	4289	108.507	4
1	4338	110.076069915776	4
1	4356	111.3098	2
1	4375	111.6034909714	2
1	4404	112.271112732275	3
1	4437	112.578474264464	4
1	4473	113.012333106929	7
1	4529	114.142979820341	10
1	4651	116.9154	5
1	4691	118.7172	1
1	4707	119.116011900295	1
1	4725	119.651390286684	2
1	4753	120.465439647237	4
1	4790	121.039811681624	6
1	4853	122.9214	3
1	4891	123.836242147415	3
1	4936	125.116026108034	4
1	4969	125.625103548239	7
1	5043	126.733355687023	10
1	5157	129.121182581017	15
1	5241	131.3298	8
1	5313	132.517486046927	7
1	5353	134.1326	4
1	5402	135.439329466968	3
1	5444	137.044260119602	5
1	5507	138.87847425199	8
1	5560	140.7392	4
1	5606	141.414662322946	4
1	5647	142.425079053925	6
1	5685	144.1426	3
1	5720	145.544	1
1	5731	145.662054693236	1
1	5742	145.762054693236	1
1	5757	145.927272357873	2
1	5783	146.166245579681	3
1	5810	146.471027273265	5
1	5847	146.997622377471	8
1	5949	148.998982912665	12
1	6020	151.1496	6
1	6083	152.632017407474	6
1	6153	154.083008849845	9
1	6263	156.330288668365	14
1	6414	159.437953639326	21
1	6551	162.7612	10
1	6657	165.140298079875	10
1	6721	167.1656	5
1	6775	168.734767808897	5
1	6837	170.155956918681	8
1	6927	172.312760857828	12
1	6953	173.7722	6
1	6995	175.3738	2
1	7019	175.941636015408	2
1	7045	176.945871284931	3
1	7087	178.131409552432	4
1	7139	179.691984552519	6
1	7197	180.538005487818	10
1	7264	182.581	5
1	7320	183.638312677102	5
1	7377	185.228352654542	7
1	7452	186.787400680497	11
1	7561	188.736509805381	17
1	7639	190.7892	8
1	7728	192.971043223316	8
1	7748	194.1926	4
1	7790	194.723535458743	4
1	7835	195.947005320176	6
1	7897	197.205399719324	9
1	7977	199.7982	4
2	2	0	1
2	18	1.2	1
2	25	1.223845695755	1
2	30	1.4	1
2	47	1.916491404947	1
2	70	2.254204200535	1
2	103	3.8024	1
2	110	3.871761492565	1
2	127	4.24814769467	1
2	156	4.888818544298	1
2	187	5.361878494307	1
2	242	6.940803198289	1
2	331	9.2078	1
2	365	10.6092	1
2	379	10.836914555671	1
2	397	11.114916844937	1
2	421	11.417757016163	1
2	456	12.291961955989	1
2	494	12.825708783341	1
2	563	15.0136	1
2	599	15.928894281047	1
2	643	17.580031240579	1
2	693	18.211745277627	1
2	769	20.419	1
2	818	22.2208	1
2	828	22.40516206433	1
2	846	22.946172110017	1
2	878	23.267424817693	1
2	915	23.869397368243	1
2	956	24.627828251493	1
2	1006	25.493335726998	1
2	1096	26.896647785042	1
2	1227	29.8284	1
2	1313	31.352541516286	1
2	1373	33.2318	1
2	1406	33.811312823131	1
2	1449	35.131888423095	1
2	1521	37.189055788373	1
2	1599	39.438	1
2	1655	40.781567735987	1
2	1693	41.405958034526	1
2	1757	42.87210026325	1
2	1855	44.735895717887	1
2	1984	47.8464	1
2	2058	49.8484	1
2	2079	50.465064767356	1
2	2108	51.129331727358	1
2	2150	52.192944059485	1
2	2187	53.8524	1
2	2218	54.452908267775	1
2	2242	54.879052140021	1
2	2294	56.304424039868	1
2	2358	57.826629332756	1
2	2461	59.780466794676	1
2	2535	61.8604	1
2	2600	63.804821397629	1
2	2690	65.889585472772	1
2	2777	67.552061122423	1
2	2842	69.6682	1
2	2891	71.47	1
2	2917	72.066745076903	1
2	2941	72.5671508915	1
2	2983	73.321487597491	1
2	3021	75.0736	1
2	3047	75.790132628514	1
2	3074	76.154536018263	1
2	3115	76.946604842379	1
2	3189	78.89829922698	1
2	3297	81.517009853355	1
2	3377	83.8824	1
2	3460	85.563979075257	1
2	3534	87.8864	1
2	3573	88.816136899713	1
2	3595	89.179069088713	1
2	3647	91.0896	1
2	3684	92.224444134863	1
2	3707	92.925429191967	1
2	3743	93.529602908266	1
2	3810	94.986189914185	1
2	3905	97.496	1
2	3921	98.6972	1
2	3931	98.777168138171	1
2	3944	98.914039133544	1
2	3971	99.569399646326	1
2	4008	100.119680118099	1
2	4064	102.1006	1
2	4091	102.873578984048	1
2	4118	104.012572285997	1
2	4157	105.020691256975	1
2	4217	106.142544580394	1
2	4290	108.507	1
2	4339	110.076069915776	1
2	4357	111.3098	1
2	4376	111.6034909714	1
2	4406	112.271112732275	1
2	4438	112.578474264464	1
2	4474	113.012333106929	1
2	4530	114.142979820341	1
2	4652	116.9154	1
2	4692	118.7172	1
2	4709	119.116011900295	1
2	4727	119.651390286684	1
2	4754	120.465439647237	1
2	4791	121.039811681624	1
2	4854	122.9214	1
2	4893	123.836242147415	1
2	4938	125.116026108034	1
2	4970	125.625103548239	1
2	5044	126.733355687023	1
2	5158	129.121182581017	1
2	5242	131.3298	1
2	5314	132.517486046927	1
2	5354	134.1326	1
2	5404	135.439329466968	1
2	5446	137.044260119602	1
2	5508	138.87847425199	1
2	5561	140.7392	1
2	5607	141.414662322946	1
2	5649	142.425079053925	1
2	5686	144.1426	1
2	5721	145.544	1
2	5733	145.662054693236	1
2	5743	145.762054693236	1
2	5758	145.927272357873	1
2	5784	146.166245579681	1
2	5811	146.471027273265	1
2	5848	146.997622377471	1
2	5950	148.998982912665	1
2	6021	151.1496	1
2	6084	152.632017407474	1
2	6154	154.083008849845	1
2	6264	156.330288668365	1
2	6415	159.437953639326	1
2	6552	162.7612	1
2	6658	165.140298079875	1
2	6722	167.1656	1
2	6777	168.734767808897	1
2	6838	170.155956918681	1
2	6929	172.312760857828	1
2	6954	173.7722	1
2	6996	175.3738	1
2	7020	175.941636015408	1
2	7046	176.945871284931	1
2	7088	178.131409552432	1
2	7140	179.691984552519	1
2	7198	180.538005487818	1
2	7265	182.581	1
2	7321	183.638312677102	1
2	7379	185.228352654542	1
2	7453	186.787400680497	1
2	7562	188.736509805381	1
2	7640	190.7892	1
2	7729	192.971043223316	1
2	7749	194.1926	1
2	7791	194.723535458743	1
2	7836	195.947005320176	1
2	7898	197.205399719324	1
2	7978	199.7982	1
3	11	1.023645695755	1
3	37	1.716291404947	1
3	51	1.954004200535	1
3	55	2.010878873098	1
3	82	3.090967559374	1
3	96	3.671561492565	1
3	115	4.04794769467	1
3	131	4.329689324744	1
3	144	4.688618544298	1
3	160	4.961678494307	1
3	164	5.034716621522	1
3	169	5.080474681701	1
3	199	6.20283556729	1
3	203	6.279112048942	1
3	205	6.28098697275	1
3	225	6.640603198289	1
3	228	6.728103142595	1
3	255	7.428569084729	1
3	261	7.599737277222	1
3	276	7.900425144134	1
3	291	8.353823177207	1
3	294	8.35537492848	1
3	297	8.421451149347	1
3	312	8.67629075593	1
3	335	9.272608248886	1
3	343	9.407196610953	1
3	369	10.636714555671	1
3	383	10.914716844937	1
3	386	10.968398238985	1
3	401	11.117557016163	1
3	415	11.390451326963	1
3	431	11.891761955989	1
3	434	11.894469969879	1
3	445	12.178901420116	1
3	460	12.325508783341	1
3	464	12.418476365327	1
3	469	12.432025805336	1
3	488	12.741800928387	1
3	510	13.683356031649	1
3	527	14.183257105652	1
3	536	14.355145428615	1
3	539	14.360907840633	1
3	568	15.253553275676	1
3	571	15.265731245021	1
3	587	15.728694281047	1
3	608	16.598841881528	1
3	622	17.202464905511	1
3	629	17.379831240579	1
3	636	17.436876429218	1
3	649	17.611545277627	1
3	653	17.634917065966	1
3	655	17.655307436794	1
3	672	17.930752219452	1
3	674	17.988777127193	1
3	683	18.043943948924	1
3	704	18.646656218649	1
3	723	19.043235661364	1
3	741	19.599699348536	1
3	750	19.757198953536	1
3	773	20.534892365844	1
3	783	20.760067308708	1
3	799	21.372841642992	1
3	814	22.20496206433	1
3	836	22.745972110017	1
3	850	22.967224817693	1
3	854	23.057950690631	1
3	859	23.092302481932	1
3	861	23.103226434054	1
3	865	23.154898622937	1
3	873	23.232826362542	1
3	885	23.469197368243	1
3	888	23.540362715873	1
3	901	23.763318726297	1
3	908	23.82311775586	1
3	922	24.127628251493	1
3	929	24.241618437443	1
3	938	24.395614779182	1
3	945	24.478356088981	1
3	962	24.793135726998	1
3	971	24.934313716128	1
3	978	25.086015395448	1
3	997	25.386458873227	1
3	1013	25.679841792708	1
3	1018	25.755548827778	1
3	1045	26.193085746678	1
3	1049	26.23789730319	1
3	1056	26.29705742	1
3	1071	26.55517020022	1
3	1080	26.696447785042	1
3	1091	26.826456138385	1
3	1103	27.035923992163	1
3	1111	27.225116783715	1
3	1129	27.573263488772	1
3	1136	27.706571913617	1
3	1143	27.794352019004	1
3	1148	27.820401686107	1
3	1162	28.063131337942	1
3	1169	28.150602066733	1
3	1184	28.444795527734	1
3	1187	28.459365315474	1
3	1209	29.136939112769	1
3	1233	29.932184932583	1
3	1240	30.067411673936	1
3	1247	30.148223419108	1
3	1262	30.452689893039	1
3	1278	30.952341516286	1
3	1281	31.016094011022	1
3	1287	31.056558843428	1
3	1300	31.263182381062	1
3	1303	31.286800025712	1
3	1308	31.347231302948	1
3	1321	31.694346812362	1
3	1353	32.446062267579	1
3	1377	33.327720589736	1
3	1384	33.497316787589	1
3	1393	33.611112823131	1
3	1416	34.143031996128	1
3	1430	34.769933081276	1
3	1437	34.931688423095	1
3	1456	35.291051454822	1
3	1472	35.996167087625	1
3	1479	36.128357903462	1
3	1489	36.284027950368	1
3	1508	36.988855788373	1
3	1515	37.109525417679	1
3	1526	37.251208627256	1
3	1540	37.505895537405	1
3	1559	38.068546673158	1
3	1572	38.628705630261	1
3	1583	39.025353694823	1
3	1603	39.617368979614	1
3	1614	39.977543573471	1
3	1627	40.249214186989	1
3	1639	40.581367735987	1
3	1642	40.607906173818	1
3	1644	40.632913886999	1
3	1660	40.905758034526	1
3	1663	40.919460606661	1
3	1667	41.003952202064	1
3	1672	41.033963970846	1
3	1697	41.429659509036	1
3	1701	41.503211190898	1
3	1731	42.178355015375	1
3	1746	42.67190026325	1
3	1761	42.888817672687	1
3	1766	42.920552663183	1
3	1780	43.198124491454	1
3	1783	43.218047012657	1
3	1785	43.238231394903	1
3	1813	44.102688336438	1
3	1825	44.335695717887	1
3	1828	44.389029106144	1
3	1830	44.43052743742	1
3	1848	44.699380975664	1
3	1862	44.985394109411	1
3	1886	45.886249333956	1
3	1892	46.021851464566	1
3	1902	46.158927779804	1
3	1918	46.596920437222	1
3	1921	46.603477178191	1
3	1923	46.618402620038	1
3	1936	46.839015169838	1
3	1939	46.873914012885	1
3	1945	46.983937082416	1
3	1967	47.329563042594	1
3	1988	47.866758459719	1
3	1999	48.08362624318	1
3	2017	48.878710386484	1
3	2027	49.133048744802	1
3	2030	49.174460463182	1
3	2049	49.731267288676	1
3	2069	50.264864767356	1
3	2083	50.465540273782	1
3	2098	50.929131727358	1
3	2115	51.427579211762	1
3	2126	51.778589893782	1
3	2138	51.992744059485	1
3	2155	52.308069028895	1
3	2172	53.09211210881	1
3	2191	53.922889496079	1
3	2201	54.252708267775	1
3	2207	54.333524075402	1
3	2212	54.381830740196	1
3	2223	54.578852140021	1
3	2232	54.71488019785	1
3	2253	55.501752887563	1
3	2277	56.104224039868	1
3	2280	56.162812517704	1
3	2286	56.292179058716	1
3	2298	56.342005440818	1
3	2301	56.404861135141	1
3	2336	57.434478408183	1
3	2343	57.626429332756	1
3	2353	57.74239980895	1
3	2365	57.892059622452	1
3	2387	58.542993180275	1
3	2397	58.832424777985	1
3	2410	59.068910753767	1
3	2418	59.241128940033	1
3	2428	59.380266794676	1
3	2436	59.470972403346	1
3	2441	59.515148793396	1
3	2450	59.674698314473	1
3	2456	59.710505835518	1
3	2468	59.873424769539	1
3	2471	59.895933417085	1
3	2499	60.594063949398	1
3	2502	60.658482322332	1
3	2529	61.826387695608	1
3	2532	61.827266961517	1
3	2548	62.120372987605	1
3	2567	62.748539462135	1
3	2570	62.774594044841	1
3	2590	63.604621397629	1
3	2605	64.00077194105	1
3	2617	64.210309161176	1
3	2630	64.550909535556	1
3	2645	64.963806582545	1
3	2659	65.488456010343	1
3	2669	65.689385472772	1
3	2675	65.817446342031	1
3	2678	65.818624923235	1
3	2681	65.836830339385	1
3	2694	66.022983070539	1
3	2709	66.306870315231	1
3	2715	66.354028722261	1
3	2717	66.393750485954	1
3	2726	66.504545945282	1
3	2752	66.93209333935	1
3	2766	67.351861122423	1
3	2786	67.826441968898	1
3	2800	68.248831485962	1
3	2807	68.406423873827	1
3	2828	69.154953913269	1
3	2847	70.0185921529	1
3	2862	70.823697587265	1
3	2866	70.88096577194	1
3	2868	70.909305701112	1
3	2898	71.766545076903	1
3	2901	71.83173255546	1
3	2912	72.019653825883	1
3	2924	72.2669508915	1
3	2948	72.698851392687	1
3	2951	72.701995815841	1
3	2969	73.121287597491	1
3	2972	73.199656860594	1
3	2994	74.391984797667	1
3	2997	74.403252232204	1
3	3029	75.489932628514	1
3	3032	75.51637957429	1
3	3034	75.528654649488	1
3	3051	75.854336018263	1
3	3054	75.859166075646	1
3	3069	76.121958077789	1
3	3081	76.35707028276	1
3	3100	76.746404842379	1
3	3103	76.756744271141	1
3	3127	77.460945655309	1
3	3142	77.782377285447	1
3	3145	77.787434979062	1
3	3157	78.01708750947	1
3	3179	78.69809922698	1
3	3193	79.027585487752	1
3	3205	79.237879410175	1
3	3212	79.412544054045	1
3	3229	79.698756981269	1
3	3232	79.794187596909	1
3	3237	79.837607126244	1
3	3263	80.73434701722	1
3	3270	80.925926570284	1
3	3285	81.316809853355	1
3	3301	81.61881359917	1
3	3304	81.62071680545	1
3	3317	81.823773570201	1
3	3320	81.855157728792	1
3	3345	82.659058952932	1
3	3356	82.958709871201	1
3	3373	83.782874289553	1
3	3384	83.884793017906	1
3	3396	84.092714045478	1
3	3404	84.249796981868	1
3	3415	84.407901517202	1
3	3431	84.864235031358	1
3	3447	85.363779075257	1
3	3454	85.494933401577	1
3	3470	85.71249302484	1
3	3488	86.492825119106	1
3	3498	86.69464568053	1
3	3510	87.077020189893	1
3	3527	87.689992747755	1
3	3541	87.930832104097	1
3	3557	88.615936899713	1
3	3560	88.675825378595	1
3	3566	88.720786962419	1
3	3577	88.878869088713	1
3	3601	89.271174590998	1
3	3616	89.702933537109	1
3	3628	89.952893895638	1
3	3652	91.35935565862	1
3	3666	92.024244134863	1
3	3669	92.047195848117	1
3	3675	92.161256355527	1
3	3678	92.204678297956	1
3	3692	92.625229191967	1
3	3713	93.029402908266	1
3	3717	93.127634274095	1
3	3749	93.665969671763	1
3	3753	93.704175406979	1
3	3755	93.732064331891	1
3	3760	93.809299834749	1
3	3785	94.339861491799	1
3	3799	94.785989914185	1
3	3819	95.249552056338	1
3	3833	95.714420103591	1
3	3843	96.064058566697	1
3	3856	96.379627349787	1
3	3865	96.504248539708	1
3	3874	96.614446529617	1
3	3885	96.79083449056	1
3	3914	98.576968138171	1
3	3925	98.713839133544	1
3	3938	98.818550059033	1
3	3959	99.369199646326	1
3	3976	99.700087188733	1
3	3984	99.819480118099	1
3	3991	99.911543870821	1
3	4000	100.028380792043	1
3	4012	100.193025212778	1
3	4036	101.014381039424	1
3	4050	101.64324238605	1
3	4069	102.400913547353	1
3	4079	102.673378984048	1
3	4102	103.712372285997	1
3	4105	103.811137124023	1
3	4126	104.305511155138	1
3	4141	104.720491256975	1
3	4144	104.747769349192	1
3	4164	105.138056202667	1
3	4167	105.166649736948	1
3	4183	105.517796923322	1
3	4196	105.762108161106	1
3	4205	105.942344580394	1
3	4227	106.524110269721	1
3	4234	106.72283987711	1
3	4252	107.369601554575	1
3	4259	107.525467415348	1
3	4273	107.829348107142	1
3	4295	108.740129572909	1
3	4310	109.675869915776	1
3	4313	109.680856211167	1
3	4316	109.730278136084	1
3	4321	109.843064573605	1
3	4329	109.918211646214	1
3	4353	111.3032909714	1
3	4364	111.424553564594	1
3	4388	112.070912732275	1
3	4394	112.159951746687	1
3	4396	112.165994914432	1
3	4410	112.278274264464	1
3	4414	112.310815615908	1
3	4416	112.348636158362	1
3	4421	112.378277654268	1
3	4432	112.519442057125	1
3	4442	112.612133106929	1
3	4445	112.621200979813	1
3	4451	112.68625538564	1
3	4468	112.917770762463	1
3	4478	113.068100849583	1
3	4519	113.942779820341	1
3	4537	114.410193031635	1
3	4546	114.586896864311	1
3	4551	114.614567823476	1
3	4567	114.908139957171	1
3	4574	115.050509771266	1
3	4590	115.334389700004	1
3	4598	115.483500076632	1
3	4620	116.2961214667	1
3	4627	116.404140248285	1
3	4643	116.802003912012	1
3	4656	116.991073920804	1
3	4674	117.513657882398	1
3	4696	118.915811900295	1
3	4703	119.038585808334	1
3	4717	119.451190286684	1
3	4736	120.165239647237	1
3	4739	120.191528697488	1
3	4741	120.252975876011	1
3	4759	120.539611681624	1
3	4767	120.696877289719	1
3	4774	120.762037348417	1
3	4796	121.163233728937	1
3	4804	121.307048417626	1
3	4813	121.428743326091	1
3	4837	122.312466934819	1
3	4858	122.964287429749	1
3	4861	123.044799562795	1
3	4880	123.636042147415	1
3	4887	123.79218335083	1
3	4897	123.846322856523	1
3	4921	124.915826108034	1
3	4925	124.994526305294	1
3	4927	125.008001198528	1
3	4932	125.024159083097	1
3	4943	125.124903548239	1
3	4974	125.712008815243	1
3	4980	125.806612814725	1
3	4992	125.93091533883	1
3	5000	126.117358571889	1
3	5011	126.267248484059	1
3	5022	126.433155687023	1
3	5030	126.527719146058	1
3	5051	126.950464369854	1
3	5054	126.989916822094	1
3	5059	127.076821429852	1
3	5072	127.259981648447	1
3	5091	127.857075041143	1
3	5097	127.937327934004	1
3	5111	128.203081421921	1
3	5122	128.451533257835	1
3	5136	128.820982581017	1
3	5139	128.888964336695	1
3	5141	128.896683305006	1
3	5153	129.111538834775	1
3	5165	129.155516942748	1
3	5193	130.044356411036	1
3	5205	130.281522126516	1
3	5212	130.421007233443	1
3	5220	130.512086538817	1
3	5246	131.437252989675	1
3	5249	131.498424936643	1
3	5251	131.516097152884	1
3	5257	131.550380934887	1
3	5269	131.789137714461	1
3	5271	131.817626265754	1
3	5290	132.092361640941	1
3	5303	132.317286046927	1
3	5330	133.296395589701	1
3	5334	133.364959792476	1
3	5358	134.142781374676	1
3	5364	134.246739681118	1
3	5376	134.461299930159	1
3	5394	135.239129466968	1
3	5411	135.666622736749	1
3	5414	135.726331318749	1
3	5436	136.844060119602	1
3	5451	137.151023291245	1
3	5464	137.551134171642	1
3	5469	137.582925792703	1
3	5489	138.506372969962	1
3	5496	138.67827425199	1
3	5519	139.516817690024	1
3	5532	139.91762456474	1
3	5539	140.114823755355	1
3	5557	140.643090523344	1
3	5572	140.966640113563	1
3	5580	141.114462322946	1
3	5587	141.173942598317	1
3	5589	141.209535201427	1
3	5601	141.381890405237	1
3	5616	141.621626253542	1
3	5637	142.224879053925	1
3	5656	142.695945048733	1
3	5667	142.954224610078	1
3	5693	144.821393814979	1
3	5696	144.919717454771	1
3	5715	145.461854693236	1
3	5718	145.501157095197	1
3	5737	145.727072357873	1
3	5747	145.806205465054	1
3	5763	145.966045579681	1
3	5766	146.00610244962	1
3	5768	146.025485416565	1
3	5777	146.10537136816	1
3	5788	146.170827273265	1
3	5798	146.315975296745	1
3	5815	146.497422377471	1
3	5818	146.510576136318	1
3	5826	146.639686928055	1
3	5855	147.187053618843	1
3	5858	147.247879472795	1
3	5870	147.403038364918	1
3	5889	148.013782724865	1
3	5902	148.265143734789	1
3	5909	148.395492017634	1
3	5924	148.698782912665	1
3	5928	148.752938107275	1
3	5930	148.795698333929	1
3	5938	148.898800504226	1
3	5944	148.924699205301	1
3	5959	149.335621913469	1
3	5963	149.386691981241	1
3	6000	150.295594080447	1
3	6027	151.581058056503	1
3	6037	151.907171332699	1
3	6040	151.940288355925	1
3	6048	152.056148019496	1
3	6060	152.220943078344	1
3	6073	152.431817407474	1
3	6094	153.055799539925	1
3	6097	153.084315209894	1
3	6110	153.347635067356	1
3	6124	153.647773715864	1
3	6127	153.653080476872	1
3	6141	153.882808849845	1
3	6164	154.541473617863	1
3	6171	154.646103967913	1
3	6181	154.79152838526	1
3	6194	155.047019084661	1
3	6197	155.10209867204	1
3	6209	155.256197108578	1
3	6220	155.379572577957	1
3	6236	155.859558553184	1
3	6247	156.130088668365	1