version 3
run FeedbackVersion-1-20240511-20:45:11-11876
attr configname FeedbackVersion
attr datetime 20240511-20:45:11
attr datetimef 20240511-204511
attr experiment FeedbackVersion
attr inifile omnetpp.ini
attr iterationvars $genInterval=0.15
attr iterationvarsd genInterval=0.15
attr iterationvarsf genInterval=0.15-
attr measurement $genInterval=0.15
attr network NetworkFV
attr processid 11876
attr repetition 0
attr replication #0
attr resultdir results
attr runnumber 1
attr seedset 1
itervar genInterval 0.15
config network NetworkFV
config sim-time-limit 200s
config NetworkFV.nodeTx.gen.generationInterval exponential(0.15)
config NetworkFV.nodeTx.gen.packetByteSize 12500
config NetworkFV.queueOne.bufferSize 200
config NetworkFV.nodeRx.queue.bufferSize 200
config NetworkFV.nodeTx.queue.bufferSize 2000000
config NetworkFV.queueZero.bufferSize 200

vector 0 NetworkFV.nodeRx.queue PacketsLost ETV
vector 1 NetworkFV.nodeRx.queue PacketsAsked ETV
vector 2 NetworkFV.queueOne bufferSize ETV
vector 3 NetworkFV.nodeTx.gen packetGen ETV
vector 4 NetworkFV.nodeTx.queue BufferSize ETV
vector 5 NetworkFV.nodeTx.queue PacketsSent ETV
vector 6 NetworkFV.queueZero bufferSize ETV
vector 7 NetworkFV.nodeRx.queue BufferSize ETV
vector 8 NetworkFV.nodeRx.sink Delay ETV
vector 9 NetworkFV.nodeRx.sink packetUsed ETV
0	1	0	1
0	12	0.2	1
0	19	0.6002	1
0	20	0.8004	1
0	24	1.0006	1
0	41	1.401	1
0	49	1.6012	1
0	72	2.2018	1
0	73	2.402	1
0	74	2.6022	1
0	87	2.8024	1
0	130	3.403	1
0	182	4.2038	1
0	362	6.8064	1
0	398	7.6072	1
0	407	7.8074	1
0	473	9.0086	1
0	500	9.6092	1
0	573	10.6102	1
0	743	13.413	1
0	752	13.6132	1
0	849	15.0146	1
0	1039	17.8174	1
0	1205	20.2198	1
0	1267	21.421	1
0	1381	23.2228	1
0	1575	26.426	1
0	1588	26.8264	1
0	1663	28.0276	1
0	1711	28.8284	1
0	1891	31.6312	1
0	1952	32.6322	1
0	1990	33.433	1
0	1993	33.6332	1
0	1996	33.8334	1
0	2011	34.0336	1
0	2057	34.8344	1
0	2142	36.0356	1
0	2466	40.44	1
0	2511	41.2408	1
0	2831	45.8454	1
0	2910	47.2468	1
0	2927	47.6472	1
0	3064	49.8494	1
0	3072	50.0496	1
0	3150	51.2508	1
0	3365	54.2538	1
0	3433	55.2548	1
0	3483	56.2558	1
0	3549	57.457	1
0	3573	58.0576	1
0	3592	58.458	1
0	3650	59.459	1
0	3743	61.0606	1
0	3788	61.8614	1
0	3907	63.6632	1
0	4013	65.2648	1
0	4057	66.0656	1
0	4077	66.466	1
0	4100	67.0666	1
0	4111	67.2668	1
0	4199	68.6682	1
0	4233	69.2688	1
1	1	0	2
1	32	1.162049603124	2
1	62	1.85764006454	4
1	116	3.17459256505	6
1	164	3.939245753093	9
1	243	5.047517671016	14
1	348	6.566167201512	21
1	557	10.326635392857	31
1	831	14.693150201471	44
1	1194	19.98573906438	60
1	1663	28.0276	28
1	1909	31.946438520775	26
1	2057	34.8344	13
1	2171	36.35398474121	12
1	2268	37.557780954313	18
1	2409	39.549265602897	26
1	2641	43.027654948112	36
1	2956	48.116081648215	49
1	3348	53.949903029634	59
1	3592	58.458	27
1	3836	62.449235607643	24
1	4025	65.393436722082	32
1	4233	69.2688	15
2	2	0	1
2	34	1.162049603124	1
2	63	1.85764006454	1
2	117	3.17459256505	1
2	165	3.939245753093	1
2	244	5.047517671016	1
2	349	6.566167201512	1
2	558	10.326635392857	1
2	832	14.693150201471	1
2	1195	19.98573906438	1
2	1664	28.0276	1
2	1910	31.946438520775	1
2	2058	34.8344	1
2	2172	36.35398474121	1
2	2269	37.557780954313	1
2	2410	39.549265602897	1
2	2642	43.027654948112	1
2	2957	48.116081648215	1
2	3349	53.949903029634	1
2	3593	58.458	1
2	3837	62.449235607643	1
2	4026	65.393436722082	1
2	4234	69.2688	1
3	6	0.080940873977	1
3	21	0.961849603124	1
3	28	1.152968388848	1
3	42	1.55744006454	1
3	45	1.557457222683	1
3	47	1.578023509772	1
3	50	1.63202542195	1
3	75	2.67439256505	1
3	78	2.698199004634	1
3	80	2.738594598285	1
3	82	2.75312717916	1
3	88	2.828898630761	1
3	90	2.859815825856	1
3	97	2.933447399524	1
3	103	2.997043871345	1
3	112	3.163227873222	1
3	122	3.239045753093	1
3	146	3.650300155444	1
3	154	3.766394120985	1
3	170	4.047317671016	1
3	175	4.12881857781	1
3	180	4.185191456709	1
3	193	4.3585734133	1
3	200	4.470096866902	1
3	204	4.504405527891	1
3	210	4.592306047568	1
3	230	4.90801064201	1
3	232	4.947133019501	1
3	238	4.951298463644	1
3	248	5.065967201512	1
3	257	5.232479249295	1
3	280	5.600424221328	1
3	289	5.681437878796	1
3	295	5.773091360447	1
3	304	5.895792457154	1
3	310	5.980294241855	1
3	312	6.002985179506	1
3	337	6.422831971199	1
3	339	6.455947953732	1
3	356	6.681972866081	1
3	369	6.92394801977	1
3	382	7.112749601446	1
3	399	7.630283664539	1
3	410	7.873781868416	1
3	415	7.930187661778	1
3	417	7.944796647647	1
3	429	8.121602173029	1
3	436	8.231121328799	1
3	453	8.544713867243	1
3	465	8.845108438804	1
3	478	9.182616819186	1
3	490	9.447659501975	1
3	493	9.460991431264	1
3	507	9.726435392857	1
3	510	9.73241107473	1
3	514	9.780245707002	1
3	516	9.808164500346	1
3	519	9.81732509307	1
3	541	10.133060540765	1
3	550	10.299600145405	1
3	553	10.315128948228	1
3	563	10.44999441044	1
3	568	10.531990214253	1
3	580	10.699043358418	1
3	606	11.174162196786	1
3	610	11.253762343695	1
3	617	11.368029347078	1
3	623	11.401042373785	1
3	636	11.577630862423	1
3	640	11.628926184894	1
3	649	11.685789606055	1
3	651	11.708783286709	1
3	664	11.882777116957	1
3	677	12.11217334076	1
3	690	12.38210490011	1
3	694	12.461896673278	1
3	696	12.464665309978	1
3	698	12.469880629987	1
3	712	12.677911396591	1
3	723	12.82464827883	1
3	746	13.499244879083	1
3	753	13.661347057585	1
3	766	13.868194621756	1
3	771	13.921373773362	1
3	776	13.970741910321	1
3	779	14.059366920727	1
3	798	14.292950201471	1
3	801	14.330628529801	1
3	803	14.346971241765	1
3	805	14.358400438224	1
3	813	14.447502592372	1
3	821	14.542518976055	1
3	839	14.901388068534	1
3	842	14.916555541838	1
3	844	14.968694589565	1
3	867	15.319224759553	1
3	869	15.37012904274	1
3	871	15.389217222538	1
3	877	15.410111458433	1
3	886	15.521714190317	1
3	888	15.524647733575	1
3	890	15.537746848483	1
3	903	15.708117136652	1
3	923	16.08120394586	1
3	929	16.11687174989	1
3	949	16.478812758608	1
3	955	16.525107079859	1
3	957	16.57837923452	1
3	966	16.679844326801	1
3	976	16.811545204347	1
3	979	16.819771068406	1
3	987	16.944947278337	1
3	994	17.072986084785	1
3	1006	17.215749803568	1
3	1009	17.239551440322	1
3	1033	17.709923603257	1
3	1040	17.843409464357	1
3	1045	17.888773801828	1
3	1057	18.069248951888	1
3	1062	18.108651606425	1
3	1064	18.124845260978	1
3	1072	18.23920328892	1
3	1080	18.319382943928	1
3	1102	18.768557300465	1
3	1111	18.946379111277	1
3	1120	19.048283384831	1
3	1125	19.128494602514	1
3	1133	19.245169866839	1
3	1139	19.252856512571	1
3	1152	19.470391940227	1
3	1162	19.58553906438	1
3	1165	19.592499967347	1
3	1175	19.756004938575	1
3	1177	19.778622462892	1
3	1190	19.887129128385	1
3	1202	20.122953033705	1
3	1224	20.556915195544	1
3	1227	20.561453362301	1
3	1235	20.693937994019	1
3	1250	21.015936143052	1
3	1264	21.36651559407	1
3	1273	21.483252151944	1
3	1276	21.505435771985	1
3	1283	21.594561471918	1
3	1285	21.617058739278	1
3	1305	21.951091172173	1
3	1318	22.198155356211	1
3	1322	22.269277429323	1
3	1329	22.345321602866	1
3	1336	22.461288112349	1
3	1340	22.488400286612	1
3	1351	22.646862088648	1
3	1369	23.040505146168	1
3	1374	23.107744055485	1
3	1379	23.171846805968	1
3	1388	23.298794553751	1
3	1401	23.507226762595	1
3	1410	23.659575680502	1
3	1421	23.853768654627	1
3	1426	23.874023941189	1
3	1442	24.196254081934	1
3	1451	24.372030556822	1
3	1462	24.518624765321	1
3	1473	24.675136627266	1
3	1486	24.883647312272	1
3	1489	24.949176536445	1
3	1494	25.013539959509	1
3	1508	25.229641807331	1
3	1513	25.276833603439	1
3	1520	25.342965984626	1
3	1538	25.682306618882	1
3	1549	25.891933183016	1
3	1552	25.9757495416	1
3	1569	26.295475806364	1
3	1583	26.797652947003	1
3	1586	26.799413619061	1
3	1594	26.962761112788	1
3	1601	27.066166980687	1
3	1613	27.211975445689	1
3	1616	27.223473914602	1
3	1619	27.241756009924	1
3	1633	27.473691307507	1
3	1653	27.921526700897	1
3	1656	27.931458461236	1
3	1658	28.02111004958	1
3	1670	28.086957988774	1
3	1676	28.216509033515	1
3	1699	28.643184778701	1
3	1704	28.721856742528	1
3	1709	28.793514529119	1
3	1712	28.834094419635	1
3	1729	29.049998108449	1
3	1744	29.40054278572	1
3	1755	29.622038019202	1
3	1764	29.749922595258	1
3	1767	29.803715656351	1
3	1769	29.804146824158	1
3	1783	30.026395340108	1
3	1796	30.170410150104	1
3	1799	30.195305910131	1
3	1804	30.254628278259	1
3	1815	30.384266273673	1
3	1824	30.496583685202	1
3	1826	30.497941007119	1
3	1843	30.823598360514	1
3	1854	31.008785082628	1
3	1862	31.075089609166	1
3	1867	31.170502819687	1
3	1885	31.529272892262	1
3	1896	31.746238520775	1
3	1905	31.892708385594	1
3	1914	31.987204016373	1
3	1916	31.989596176266	1
3	1922	32.036597664545	1
3	1944	32.434285565287	1
3	1957	32.701580037329	1
3	1966	32.877692106777	1
3	1974	32.997910558879	1
3	1999	33.886361018709	1
3	2002	33.897259767524	1
3	2004	33.925632785612	1
3	2009	34.021566650593	1
3	2012	34.043691335636	1
3	2025	34.247356017063	1
3	2047	34.651912463535	1
3	2052	34.683883292631	1
3	2066	34.86289667218	1
3	2073	34.956527040823	1
3	2078	34.966768894811	1
3	2080	35.006044302218	1
3	2093	35.217302631859	1
3	2102	35.323769603986	1
3	2115	35.534057692479	1
3	2120	35.569144448332	1
3	2137	35.95378474121	1
3	2140	35.96136891964	1
3	2148	36.147840820997	1
3	2159	36.257580954313	1
3	2164	36.277485737354	1
3	2166	36.305847491509	1
3	2168	36.308859551594	1
3	2179	36.384564537309	1
3	2181	36.388548630031	1
3	2183	36.405585309283	1
3	2185	36.409892535622	1
3	2194	36.51683695194	1
3	2200	36.559233384491	1
3	2202	36.575393756728	1
3	2220	36.870340635127	1
3	2224	36.921443545336	1
3	2231	37.037542173159	1
3	2239	37.077089837339	1
3	2245	37.197809611397	1
3	2278	37.712563940468	1
3	2291	37.989367309323	1
3	2298	38.038293086513	1
3	2300	38.058181145243	1
3	2304	38.09809321228	1
3	2310	38.147198852132	1
3	2312	38.161602229807	1
3	2321	38.293798429158	1
3	2331	38.420417194243	1
3	2362	38.944393104545	1
3	2367	39.025566896992	1
3	2379	39.149065602897	1
3	2382	39.217858284658	1
3	2384	39.220681786081	1
3	2403	39.472174752009	1
3	2422	39.714065695789	1
3	2425	39.765388546833	1
3	2427	39.805173787279	1
3	2439	39.994727751116	1
3	2455	40.2415692918	1
3	2463	40.383948761005	1
3	2469	40.457568058859	1
3	2476	40.541074888687	1
3	2491	40.839835487352	1
3	2503	41.048907653876	1
3	2514	41.255134658067	1
3	2519	41.338877975127	1
3	2529	41.460748765831	1
3	2534	41.544641524721	1
3	2541	41.566647954568	1
3	2543	41.634038040751	1
3	2546	41.643306218089	1
3	2552	41.668274361757	1
3	2556	41.687678539805	1
3	2580	42.102825465557	1
3	2582	42.109661686675	1
3	2604	42.481936166574	1
3	2607	42.498994493692	1
3	2619	42.727454948112	1
3	2622	42.76582613978	1
3	2632	42.909521597096	1
3	2649	43.096756799358	1
3	2652	43.102256309208	1
3	2659	43.225306938698	1
3	2668	43.384644843409	1
3	2670	43.386540164574	1
3	2676	43.407389758002	1
3	2678	43.41859413316	1
3	2681	43.470891533879	1
3	2711	43.983840023689	1
3	2717	44.050974168905	1
3	2724	44.176908509443	1
3	2730	44.225072654444	1
3	2733	44.259162944295	1
3	2735	44.270690079095	1
3	2743	44.31430826201	1
3	2745	44.339063721761	1
3	2758	44.543348394884	1
3	2760	44.569790704902	1
3	2766	44.602407703853	1
3	2790	45.021232646626	1
3	2799	45.151843850647	1
3	2805	45.221419387919	1
3	2826	45.747503052901	1
3	2829	45.755199902529	1
3	2841	46.036629756338	1
3	2854	46.23924310207	1
3	2860	46.280378585245	1
3	2862	46.333597287993	1
3	2867	46.435711828143	1
3	2874	46.470002743011	1
3	2882	46.615122865863	1
3	2907	47.215715939953	1
3	2921	47.480612942524	1
3	2932	47.815881648215	1
3	2935	47.841462782551	1
3	2948	48.055123786591	1
3	2951	48.057936422043	1
3	2964	48.215890753438	1
3	2966	48.226779929151	1
3	2968	48.232853783656	1
3	2977	48.332784331524	1
3	2994	48.584985947228	1
3	3003	48.724822083881	1
3	3016	48.940506431519	1
3	3025	49.066701814926	1
3	3032	49.157825001759	1
3	3037	49.215093677015	1
3	3046	49.3289311086	1
3	3067	50.000265125887	1
3	3070	50.017633340672	1
3	3078	50.147667461895	1
3	3080	50.171346826006	1
3	3086	50.243086355476	1
3	3095	50.349718501902	1
3	3102	50.469811062624	1
3	3110	50.506246104734	1
3	3123	50.711416717802	1
3	3141	51.08375191619	1
3	3147	51.249703029634	1
3	3155	51.34273006621	1
3	3160	51.388896367402	1
3	3162	51.41017709718	1
3	3164	51.420472706921	1
3	3177	51.637214873955	1
3	3186	51.706540242199	1
3	3188	51.742418548346	1
3	3201	51.891441909489	1
3	3203	51.903015934961	1
3	3205	51.938407328926	1
3	3211	51.953449883337	1
3	3224	52.163056551751	1
3	3226	52.189603919059	1
3	3228	52.199931928773	1
3	3235	52.266048451048	1
3	3239	52.311278100607	1
3	3241	52.32630217808	1
3	3258	52.571326859064	1
3	3260	52.594520504052	1
3	3262	52.626765988726	1
3	3286	53.027841412921	1
3	3299	53.18086463546	1
3	3308	53.309774732382	1
3	3314	53.421336726032	1
3	3334	53.695891699467	1
3	3356	54.084048200833	1
3	3362	54.230490985577	1
3	3368	54.276326507644	1
3	3375	54.335175712021	1
3	3377	54.345411289134	1
3	3390	54.540710690432	1
3	3403	54.739951852094	1
3	3411	54.850904870779	1
3	3425	55.072783488645	1
3	3436	55.273016183196	1
3	3449	55.630611257823	1
3	3453	55.657732763083	1
3	3470	56.060908295638	1
3	3478	56.235169050252	1
3	3481	56.237276521518	1
3	3488	56.320757446718	1
3	3493	56.360814334492	1
3	3506	56.556415019659	1
3	3515	56.700286281955	1
3	3528	56.912080664383	1
3	3544	57.358518122586	1
3	3547	57.434545970991	1
3	3567	57.88443510137	1
3	3579	58.273375926994	1
3	3587	58.395386369154	1
3	3590	58.429517534685	1
3	3613	58.800357012086	1
3	3616	58.801562247735	1
3	3624	58.955463944683	1
3	3642	59.346730063464	1
3	3645	59.420876409617	1
3	3651	59.473206140776	1
3	3659	59.57303322008	1
3	3661	59.600432749027	1
3	3670	59.739501564973	1
3	3672	59.743161088298	1
3	3683	59.86278662481	1
3	3691	59.953009063373	1
3	3711	60.343930800168	1
3	3724	60.591734663769	1
3	3738	60.968237755274	1
3	3741	61.037157107844	1
3	3749	61.112505294646	1
3	3755	61.253441880776	1
3	3776	61.749035607643	1
3	3779	61.754356016351	1
3	3781	61.783022041358	1
3	3783	61.848699500168	1
3	3789	61.86895730019	1
3	3793	61.8812234261	1
3	3795	61.902991018913	1
3	3808	62.080217663608	1
3	3814	62.185898082908	1
3	3816	62.18781720746	1
3	3818	62.191081184315	1
3	3827	62.283382847487	1
3	3855	62.726773675788	1
3	3881	63.214627931142	1
3	3895	63.477897634999	1
3	3898	63.538909198404	1
3	3900	63.541179134426	1
3	3905	63.637001686049	1
3	3908	63.666075129676	1
3	3916	63.682780450782	1
3	3918	63.743314792588	1
3	3924	63.848212492673	1
3	3927	63.869273770973	1
3	3950	64.194599771896	1
3	3963	64.443307904585	1
3	3972	64.557964860838	1
3	3978	64.621372571394	1
3	3981	64.670956156894	1
3	4005	65.093236722082	1
3	4008	65.158915912947	1
3	4016	65.289762078276	1
3	4035	65.62967148562	1
3	4049	65.946258062734	1
3	4052	65.987717786398	1
3	4067	66.267110542098	1
3	4070	66.270736633453	1
3	4086	66.624439114079	1
3	4103	67.130447871308	1
3	4106	67.222842535717	1
3	4114	67.307151925401	1
3	4120	67.425715268193	1
3	4129	67.489478644238	1
3	4142	67.729850661546	1
3	4150	67.858932111761	1
3	4156	67.909403906657	1
3	4158	67.929695471117	1
3	4165	68.030771738027	1
3	4190	68.480261556813	1
3	4196	68.617371902711	1
3	4200	68.673818479122	1
3	4204	68.676166755994	1
3	4227	69.134269908935	1
3	4238	69.269288750718	1
3	4243	69.306249279164	1
3	4250	69.391537711795	1
3	4252	69.434430287643	1
3	4272	69.681470513793	1
3	4285	69.980517128404	1
3	4288	70.037321211297	1
3	4293	70.07755575038	1
3	4311	70.412638776482	1
3	4322	70.665829844041	1
3	4331	70.795191595052	1
3	4342	70.912947165639	1
3	4345	70.943450180232	1
3	4347	70.975291900025	1
3	4361	71.207917188811	1
3	4374	71.341233092364	1
3	4382	71.483257638215	1
3	4385	71.49065773029	1
3	4388	71.498970251822	1
3	4391	71.501370297521	1
3	4394	71.583129472003	1
3	4397	71.590777843901	1
3	4403	71.761257137698	1
3	4406	71.837734875288	1
3	4415	72.213995152822	1
3	4421	72.343018566333	1
3	4424	72.343078881921	1
3	4430	72.646274538387	1
3	4442	73.210551064757	1
3	4448	73.441931714958	1
3	4454	73.512812015689	1
3	4457	73.556907837186	1
3	4469	74.103113025442	1
3	4472	74.11598836616	1
3	4475	74.255211022147	1
3	4481	74.280963849568	1
3	4487	74.545742414216	1
3	4490	74.58100450669	1
3	4496	74.709252636995	1
3	4499	74.790286372131	1
3	4505	74.938646315693	1
3	4508	75.002731624976	1
3	4511	75.053173481476	1
3	4517	75.233711428464	1
3	4523	75.366297062423	1
3	4529	75.545652871372	1
3	4535	75.753610084555	1
3	4538	75.765259548323	1
3	4544	76.058380667456	1
3	4547	76.063953369356	1
3	4555	76.274978254074	1
3	4562	76.508647342957	1
3	4568	76.688275019805	1
3	4574	77.034457707064	1
3	4583	77.334252487004	1
3	4586	77.33495362	1
3	4589	77.393395558242	1
3	4592	77.439415772282	1
3	4598	77.606074136528	1
3	4604	77.70056543569	1
3	4607	77.790479521248	1
3	4610	77.857379513307	1
3	4616	77.929594478101	1
3	4619	77.970802964913	1
3	4622	78.050154294377	1
3	4625	78.053670496026	1
3	4631	78.13066469281	1
3	4634	78.244451401869	1
3	4640	78.30172481156	1
3	4643	78.32264769749	1
3	4646	78.46854486683	1
3	4652	78.592190148376	1
3	4657	78.676573073057	1
3	4661	78.704130996854	1
3	4670	79.250442293452	1
3	4676	79.332429581923	1
3	4682	79.502317416767	1
3	4687	79.675446271145	1
3	4691	79.708649897278	1
3	4694	79.756660094295	1
3	4697	79.840112279895	1
3	4700	79.841619788965	1
3	4706	79.904709548998	1
3	4709	79.9419530432	1
3	4715	80.181608207307	1
3	4718	80.186479901988	1
3	4727	80.504517291125	1
3	4736	80.914227853634	1
3	4742	81.265492167788	1
3	4751	81.494044529879	1
3	4754	81.657070722477	1
3	4760	81.766416097899	1
3	4763	81.813665509943	1
3	4766	81.81615547719	1
3	4769	81.859781877118	1
3	4775	81.91302624392	1
3	4781	82.202573937115	1
3	4787	82.319288071498	1
3	4790	82.431813858065	1
3	4799	82.726606091308	1
3	4805	82.969651411569	1
3	4808	83.000357525207	1
3	4814	83.127823646048	1
3	4817	83.140910213388	1
3	4823	83.339066301719	1
3	4826	83.345858637165	1
3	4829	83.45564546499	1
3	4835	83.543641718578	1
3	4841	83.764670690653	1
3	4844	83.767596860251	1
3	4850	83.893794525386	1
3	4853	83.904202190058	1
3	4856	83.998224632631	1
3	4862	84.248739437816	1
3	4868	84.311679118153	1
3	4871	84.463389136023	1
3	4874	84.473986202202	1
3	4883	84.696308189703	1
3	4886	84.767512183376	1
3	4892	84.95097642572	1
3	4895	84.963422714589	1
3	4898	85.004235547555	1
3	4910	85.613811779344	1
3	4913	85.620626975237	1
3	4916	85.650689941253	1
3	4922	85.700219284839	1
3	4928	85.950803579775	1
3	4934	86.25127528382	1
3	4943	86.563145503805	1
3	4946	86.574535715444	1
3	4952	86.749447337701	1
3	4958	86.91141528335	1
3	4961	87.037834529365	1
3	4964	87.068958019667	1
3	4970	87.095284598787	1
3	4973	87.206096234946	1
3	4979	87.300447552076	1
3	4985	87.651770081767	1
3	4991	87.715277494195	1
3	4994	87.811974692277	1
3	4997	87.850216262875	1
3	5006	88.131835713848	1
3	5009	88.266497232856	1
3	5018	88.540244490793	1
3	5021	88.596398299412	1
3	5024	88.618896212619	1
3	5033	88.990983607583	1
3	5039	89.107562272469	1
3	5045	89.468147884014	1
3	5051	89.56255697405	1
3	5054	89.607139743542	1
3	5057	89.644155873224	1
3	5060	89.661786240508	1
3	5066	89.748981051004	1
3	5069	89.78113886588	1
3	5074	89.879308102561	1
3	5078	89.983155482648	1
3	5081	90.043964217987	1
3	5087	90.239580528792	1
3	5090	90.240923424115	1
3	5095	90.275939337292	1
3	5099	90.38155961576	1
3	5102	90.42431915315	1
3	5108	90.592055993788	1
3	5116	90.878305256842	1
3	5119	90.886863735461	1
3	5123	90.96750302944	1
3	5126	90.993224449766	1
3	5132	91.13705920277	1
3	5137	91.27642883861	1
3	5141	91.316349441523	1
3	5144	91.374027688954	1
3	5147	91.390160001643	1
3	5156	91.72195806278	1
3	5159	91.830764310561	1
3	5165	92.065128511685	1
3	5171	92.162395024965	1
3	5174	92.199184078715	1
3	5177	92.224034128168	1
3	5180	92.257544852596	1
3	5186	92.403397140994	1
3	5192	92.574518706777	1
3	5198	92.692311406174	1
3	5201	92.71779036542	1
3	5206	92.877047396483	1
3	5210	92.984160428446	1
3	5213	93.007578791144	1
3	5225	93.671816743227	1
3	5233	93.880680401809	1
3	5237	93.904124431585	1
3	5240	93.94178821929	1
3	5243	93.949214034169	1
3	5246	94.059106990893	1
3	5255	94.403097284497	1
3	5261	94.633871547076	1
3	5267	94.822335026771	1
3	5270	94.825722555569	1
3	5275	94.881453393882	1
3	5279	94.940268173937	1
3	5282	95.015137386926	1
3	5291	95.324580965806	1
3	5294	95.337216043617	1
3	5300	95.616584807686	1
3	5305	95.681692579069	1
3	5309	95.797664255125	1
3	5312	95.797816324166	1
3	5321	96.099986096665	1
3	5324	96.246962749422	1
3	5335	96.695741688412	1
3	5339	96.72926411832	1
3	5345	96.991920382672	1
3	5351	97.139089413136	1
3	5357	97.427830366214	1
3	5362	97.48600033778	1
3	5366	97.501595128344	1
3	5369	97.508866281516	1
3	5372	97.666899644248	1
3	5378	97.859657959345	1
3	5384	98.042022763217	1
3	5390	98.255623444093	1
3	5396	98.39695737545	1
3	5401	98.475165632769	1
3	5408	98.716293043728	1
3	5414	98.899072291202	1
3	5417	98.90434973319	1
3	5420	99.036401139314	1
3	5426	99.257008308632	1
3	5438	99.780830180375	1
3	5444	99.978193598822	1
3	5447	100.032528242984	1
3	5450	100.07763288272	1
3	5454	100.134111051908	1
3	5457	100.178683927935	1
3	5460	100.217200925467	1
3	5464	100.367275461677	1
3	5468	100.534639790118	1
3	5471	100.598175933179	1
3	5475	100.824562052076	1
3	5479	101.063440821477	1
3	5483	101.171260332617	1
3	5486	101.259888519634	1
3	5490	101.403168567554	1
3	5494	101.63217414193	1
3	5497	101.639184616891	1
3	5504	102.337209236215	1
3	5507	102.4258247694	1
3	5510	102.479379235599	1
3	5516	102.99574146715	1
3	5519	103.018890092121	1
3	5522	103.08573013917	1
3	5527	103.433093510187	1
3	5531	103.554219773562	1
3	5534	103.671208448317	1
3	5538	103.750698096403	1
3	5543	104.302480237127	1
3	5549	104.809895018649	1
3	5553	104.9617345044	1
3	5556	104.995780481347	1
3	5563	105.761020935114	1
3	5569	106.501626586269	1
3	5573	106.620098694205	1
3	5577	106.781567601486	1
3	5580	106.893684643715	1
3	5585	107.142067593724	1
3	5588	107.163895680709	1
3	5591	107.255810834145	1
3	5595	107.321750661361	1
3	5599	107.649215258678	1
3	5602	107.65320051905	1
3	5606	107.767714829938	1
3	5609	107.793938422824	1
3	5613	107.923095015117	1
3	5617	108.12844406044	1
3	5621	108.50268451206	1
3	5624	108.507315214071	1
3	5628	108.563878904276	1
3	5631	108.63236340105	1
3	5635	108.826633282734	1
3	5640	109.124085356599	1
3	5644	109.369480239236	1
3	5648	109.546458985961	1
3	5651	109.64456610909	1
3	5655	109.820700125249	1
3	5659	109.920990079636	1
3	5662	109.952346001397	1
3	5666	110.2285610136	1
3	5670	110.316044731641	1
3	5673	110.437674808153	1
3	5677	110.56836431451	1
3	5680	110.615546536023	1
3	5686	111.302643175984	1
3	5690	111.402689879668	1
3	5693	111.436895623694	1
3	5696	111.485308283226	1
3	5700	111.52800785831	1
3	5703	111.566317290789	1
3	5706	111.611924191721	1
3	5710	111.768012742419	1
3	5714	111.976060379209	1
3	5719	112.357060338847	1
3	5722	112.448650418557	1
3	5725	112.482210995402	1
3	5728	112.491003120558	1
3	5733	112.808859144167	1
3	5737	112.915408101394	1
3	5740	113.0094580112	1
3	5743	113.045189006436	1
3	5747	113.238825790941	1
3	5751	113.479198296579	1
3	5755	113.533316086584	1
3	5758	113.586246569285	1
3	5761	113.686956565747	1
3	5764	113.691155699032	1
3	5768	113.725317755299	1
3	5771	113.860318535462	1
3	5774	113.874237221474	1
3	5779	114.15276875955	1
3	5782	114.179941231322	1
3	5785	114.251892639766	1
3	5789	114.356766381167	1
3	5793	114.564625546383	1
3	5797	114.797004732451	1
3	5800	114.904357054127	1
3	5805	115.255247320709	1
3	5809	115.372037333001	1
3	5812	115.409215043462	1
3	5817	115.889939966587	1
3	5821	116.090926583333	1
3	5826	116.335342752824	1
3	5829	116.380063817094	1
3	5832	116.384992366505	1
3	5835	116.509581155076	1
3	5839	116.694945704634	1
3	5843	116.716254503168	1
3	5846	116.810078198575	1
3	5849	116.879881408096	1
3	5855	117.322062636494	1
3	5858	117.33503616623	1
3	5861	117.372581149576	1
3	5864	117.478281005532	1
3	5868	117.524887179998	1
3	5871	117.702712276685	1
3	5874	117.715460031652	1
3	5878	117.807050822687	1
3	5881	117.891005634372	1
3	5885	117.958247758373	1
3	5888	117.975562544898	1
3	5892	118.229491591764	1
3	5896	118.38017251753	1
3	5899	118.387206626177	1
3	5903	118.63086136905	1
3	5906	118.704472615866	1
3	5910	118.883477254898	1
3	5914	118.975495507482	1
3	5918	119.193496193125	1
3	5922	119.3931149908	1
3	5925	119.45600110054	1
3	5930	119.81658907276	1
3	5934	120.097064886407	1
3	5938	120.145800940046	1
3	5941	120.229795120488	1
3	5945	120.485166642357	1
3	5950	120.7457657433	1
3	5953	120.905970579204	1
3	5957	121.053694627712	1
3	5960	121.055396291109	1
3	5963	121.078617959285	1
3	5967	121.278022115674	1
3	5970	121.290266581886	1
3	5974	121.429026442652	1
3	5977	121.431801857258	1
3	5981	121.602725974832	1
3	5984	121.613084279769	1
3	5988	121.744630283873	1
3	5991	121.836665334493	1
3	5995	121.964494149763	1
3	5998	121.982538528123	1
3	6001	122.049720252976	1
3	6004	122.05394674303	1
3	6010	122.531980310911	1
3	6014	122.742870086322	1
3	6020	123.393632580054	1
3	6023	123.468974536275	1
3	6027	123.542416230246	1
3	6031	123.748534637504	1
3	6035	124.019882694947	1
3	6038	124.110215543002	1
3	6044	124.714014133938	1
3	6048	124.803713343699	1
3	6052	124.935762496894	1
3	6055	125.033296487171	1
3	6059	125.200020122316	1
3	6062	125.296389352081	1
3	6065	125.309920166583	1
3	6070	125.553727317249	1
3	6076	126.268010897581	1
3	6080	126.345234065831	1
3	6084	126.572012831386	1
3	6088	126.924599860822	1
3	6095	127.701408143395	1
3	6098	127.707072932079	1
3	6102	127.866135968911	1
3	6106	128.089135634091	1
3	6109	128.094857586295	1
3	6112	128.114997285799	1
3	6116	128.305455086012	1
3	6120	128.450007085288	1
3	6124	128.62477572718	1
3	6127	128.626338478385	1
3	6131	128.767123948324	1
3	6134	128.883156308722	1
3	6137	128.899999189043	1
3	6140	128.900452567754	1
3	6144	128.949870910584	1
3	6149	129.402855551995	1
3	6153	129.627415727832	1
3	6158	129.981133623183	1
3	6162	130.312451810045	1
3	6167	130.550872795791	1
3	6170	130.658058852518	1
3	6175	131.028309329443	1
3	6179	131.216972304496	1
3	6182	131.240568343545	1
3	6185	131.252713881183	1
3	6188	131.27846209051	1
3	6192	131.421757460971	1
3	6195	131.452927675908	1
3	6199	131.725770023283	1
3	6203	131.871896100105	1
3	6207	132.05050789827	1
3	6212	132.4048732881	1
3	6215	132.526345445392	1
3	6222	133.216450124645	1
3	6226	133.512647115129	1
3	6230	133.69890997438	1
3	6234	133.904072978344	1
3	6238	134.101476556326	1
3	6242	134.147567324421	1
3	6246	134.507585768998	1
3	6256	135.763626435763	1
3	6259	135.840468870898	1
3	6263	135.968371891124	1
3	6266	136.011494340569	1
3	6270	136.164350445144	1
3	6273	136.192921076224	1
3	6276	136.29383443503	1
3	6279	136.312916920682	1
3	6284	136.643157955794	1
3	6288	136.8943429127	1
3	6293	137.205672611248	1
3	6296	137.229485463591	1
3	6300	137.511859564249	1
3	6304	137.55789897788	1
3	6307	137.71439996399	1
3	6312	137.970862620687	1
3	6315	138.102993434255	1
3	6319	138.158780704507	1
3	6322	138.208386425342	1
3	6328	138.814513630035	1
3	6334	139.532409635914	1
3	6338	139.578927155179	1
3	6342	139.820088951815	1
3	6345	139.934512856759	1
3	6349	140.03897660761	1
3	6352	140.095610404963	1
3	6356	140.317579451914	1
3	6361	140.680064915129	1
3	6364	140.699971253123	1
3	6368	140.768458957479	1
3	6373	141.149238989896	1
3	6376	141.234505169203	1
3	6379	141.241386095509	1
3	6383	141.349092071983	1
3	6386	141.388025242159	1
3	6391	141.807278561544	1
3	6395	142.084515036196	1
3	6398	142.089230742349	1
3	6402	142.143930678066	1
3	6405	142.333212636179	1
3	6409	142.432553417668	1
3	6414	142.765040608594	1
3	6417	142.922536895103	1
3	6420	142.926686860415	1
3	6424	142.94999958091	1
3	6427	143.060737346631	1
3	6430	143.115486242672	1
3	6434	143.174662749433	1
3	6438	143.501612321282	1
3	6443	143.79598308745	1
3	6447	144.122828518249	1
3	6451	144.24547072916	1
3	6455	144.354078710726	1
3	6458	144.529866459815	1
3	6462	144.576475813671	1
3	6465	144.666931616771	1
3	6470	144.985401100342	1
3	6473	145.133854979157	1
3	6477	145.237223265288	1
3	6480	145.288617275502	1
3	6484	145.34946087806	1
3	6487	145.350869760601	1
3	6491	145.688506208674	1
3	6495	145.817477151444	1
3	6498	145.851791619382	1
3	6501	145.907765459846	1
3	6506	146.164656133318	1
3	6509	146.273900055211	1
3	6514	146.547701698121	1
3	6518	146.919968960566	1
3	6522	147.030940652054	1
3	6525	147.114333659252	1
3	6528	147.140833120584	1
3	6532	147.183465540519	1
3	6537	147.629787402428	1
3	6540	147.699401077332	1
3	6543	147.708594500193	1
3	6548	148.111525580969	1
3	6553	148.437917765126	1
3	6558	148.852297791888	1
3	6562	148.980416435873	1
3	6566	149.259418923517	1
3	6569	149.330845575286	1
3	6574	149.710092588428	1
3	6578	149.863717942506	1
3	6581	149.902514179835	1
3	6584	149.923025862741	1
3	6587	149.936758017762	1
3	6591	150.015067010175	1
3	6594	150.05374856051	1
3	6597	150.119852591316	1
3	6601	150.17646661326	1
3	6604	150.201048598254	1
3	6607	150.229861820195	1
3	6611	150.521046702629	1
3	6615	150.661174498796	1
3	6618	150.677313557361	1
3	6622	150.75737305108	1
3	6627	151.216400884142	1
3	6631	151.470610644146	1
3	6634	151.497985367335	1
3	6637	151.528694443452	1
3	6641	151.615507776603	1
3	6645	151.797044909582	1
3	6648	151.823272291205	1
3	6651	151.864508022354	1
3	6656	152.181640013505	1
3	6659	152.309714566696	1
3	6663	152.407357185596	1
3	6666	152.471741172939	1
3	6669	152.548153515154	1
3	6673	152.556951202378	1
3	6676	152.605286057712	1
3	6679	152.644259847497	1
3	6682	152.652213208114	1
3	6686	152.815855619358	1
3	6689	152.838255026034	1
3	6692	152.941404390124	1
3	6697	153.167598051326	1
3	6700	153.277386238635	1
3	6703	153.306798207995	1
3	6706	153.335603118101	1
3	6710	153.466961304656	1
3	6714	153.593806737344	1
3	6719	153.988728294875	1
3	6726	154.848251470105	1
3	6729	154.865338329212	1
3	6733	155.119943605218	1
3	6737	155.210342072487	1
3	6740	155.345690124493	1
3	6744	155.37112920856	1
3	6749	155.930516121774	1
3	6753	155.984922408004	1
3	6757	156.332672553294	1
3	6761	156.549339873555	1
3	6765	156.685145434739	1
3	6769	156.833040579019	1
3	6772	156.837985135106	1
3	6776	157.024233905615	1
3	6779	157.03897130106	1
3	6782	157.071221675119	1
3	6785	157.081362633188	1
3	6788	157.091995395538	1
3	6792	157.182144368807	1
3	6796	157.499754507799	1
3	6800	157.570359448341	1
3	6803	157.628175495688	1
3	6809	158.183622443515	1
3	6812	158.322755534338	1
3	6815	158.350340947396	1
3	6821	158.816207079807	1