version 3
run FeedbackVersion-10-20240511-20:45:11-11876
attr configname FeedbackVersion
attr datetime 20240511-20:45:11
attr datetimef 20240511-204511
attr experiment FeedbackVersion
attr inifile omnetpp.ini
attr iterationvars $genInterval=0.6
attr iterationvarsd genInterval=0.6
attr iterationvarsf genInterval=0.6-
attr measurement $genInterval=0.6
attr network NetworkFV
attr processid 11876
attr repetition 0
attr replication #0
attr resultdir results
attr runnumber 10
attr seedset 10
itervar genInterval 0.6
config network NetworkFV
config sim-time-limit 200s
config NetworkFV.nodeTx.gen.generationInterval exponential(0.6)
config NetworkFV.nodeTx.gen.packetByteSize 12500
config NetworkFV.queueOne.bufferSize 200
config NetworkFV.nodeRx.queue.bufferSize 200
config NetworkFV.nodeTx.queue.bufferSize 2000000
config NetworkFV.queueZero.bufferSize 200

vector 0 NetworkFV.nodeRx.queue PacketsLost ETV
vector 1 NetworkFV.nodeRx.queue PacketsAsked ETV
vector 2 NetworkFV.queueOne bufferSize ETV
vector 3 NetworkFV.nodeTx.gen packetGen ETV
vector 4 NetworkFV.nodeTx.queue BufferSize ETV
vector 5 NetworkFV.nodeTx.queue PacketsSent ETV
vector 6 NetworkFV.queueZero bufferSize ETV
vector 7 NetworkFV.nodeRx.queue BufferSize ETV
vector 8 NetworkFV.nodeRx.sink Delay ETV
vector 9 NetworkFV.nodeRx.sink packetUsed ETV
0	1	0	1
0	6	0.2	1
0	7	0.4	1
0	8	0.6	1
0	9	0.8	1
0	16	1	1
0	44	1.6004	1
0	68	2.201	1
0	84	2.6014	1
0	91	3.0018	1
0	92	3.202	1
0	96	3.4022	1
0	106	3.8026	1
0	111	4.0028	1
0	112	4.203	1
0	116	4.4032	1
0	129	4.8036	1
0	143	5.204	1
0	147	5.4042	1
0	177	6.0048	1
0	178	6.205	1
0	182	6.4052	1
0	207	7.0058	1
0	210	7.206	1
0	220	7.4062	1
0	266	8.207	1
0	269	8.4072	1
0	275	8.6074	1
0	292	9.208	1
0	299	9.4082	1
0	306	9.8086	1
0	311	10.0088	1
0	312	10.209	1
0	313	10.4092	1
0	314	10.6094	1
0	315	10.8096	1
0	316	11.0098	1
0	327	11.21	1
0	335	11.4102	1
0	338	11.6104	1
0	339	11.8106	1
0	340	12.0108	1
0	349	12.211	1
0	360	12.4112	1
0	379	12.8116	1
0	400	13.4122	1
0	401	13.6124	1
0	402	13.8126	1
0	403	14.0128	1
0	410	14.213	1
0	417	14.6134	1
0	422	14.8136	1
0	423	15.0138	1
0	430	15.214	1
0	455	15.8146	1
0	478	16.4152	1
0	482	16.6154	1
0	492	17.0158	1
0	493	17.216	1
0	494	17.4162	1
0	495	17.6164	1
0	500	17.8166	1
0	507	18.0168	1
0	521	18.217	1
0	534	18.6174	1
0	535	18.8176	1
0	542	19.0178	1
0	549	19.4182	1
0	550	19.6184	1
0	551	19.8186	1
0	556	20.0188	1
0	557	20.219	1
0	561	20.4192	1
0	572	20.6194	1
0	578	20.8196	1
0	589	21.0198	1
0	592	21.22	1
0	593	21.4202	1
0	597	21.6204	1
0	613	22.0208	1
0	620	22.221	1
0	643	22.6214	1
0	655	23.0218	1
0	658	23.222	1
0	659	23.4222	1
0	666	23.6224	1
0	689	24.223	1
0	696	24.4232	1
0	703	24.8236	1
0	713	25.0238	1
0	728	25.4242	1
0	740	25.8246	1
0	745	26.0248	1
0	746	26.225	1
0	750	26.4252	1
0	763	26.8256	1
0	789	27.4262	1
0	811	28.0268	1
0	820	28.227	1
0	831	28.6274	1
0	840	28.8276	1
0	864	29.4282	1
0	876	29.8286	1
0	877	30.0288	1
0	881	30.229	1
0	891	30.6294	1
0	892	30.8296	1
0	893	31.0298	1
0	903	31.23	1
0	936	32.0308	1
0	940	32.231	1
0	950	32.6314	1
0	951	32.8316	1
0	952	33.0318	1
0	953	33.232	1
0	958	33.4322	1
0	962	33.6324	1
0	973	33.8326	1
0	982	34.0328	1
0	1010	34.6334	1
0	1030	35.0338	1
0	1082	36.0348	1
0	1085	36.235	1
0	1088	36.4352	1
0	1092	36.6354	1
0	1102	37.0358	1
0	1103	37.236	1
0	1108	37.4362	1
0	1109	37.6364	1
0	1118	37.8366	1
0	1130	38.0368	1
0	1139	38.237	1
0	1147	38.6374	1
0	1156	38.8376	1
0	1167	39.238	1
0	1174	39.4382	1
0	1185	39.8386	1
0	1188	40.0388	1
0	1195	40.239	1
0	1202	40.6394	1
0	1207	40.8396	1
0	1208	41.0398	1
0	1217	41.24	1
0	1232	41.4402	1
0	1235	41.6404	1
0	1238	41.8406	1
0	1239	42.0408	1
0	1243	42.241	1
0	1264	42.8416	1
0	1265	43.0418	1
0	1266	43.242	1
0	1273	43.4422	1
0	1280	43.8426	1
0	1281	44.0428	1
0	1286	44.243	1
0	1290	44.4432	1
0	1301	44.6434	1
0	1310	44.8436	1
0	1333	45.4442	1
0	1334	45.6444	1
0	1341	45.8446	1
0	1352	46.245	1
0	1359	46.4452	1
0	1378	47.0458	1
0	1379	47.246	1
0	1380	47.4462	1
0	1381	47.6464	1
0	1392	47.8466	1
0	1400	48.0468	1
0	1403	48.247	1
0	1404	48.4472	1
0	1405	48.6474	1
0	1406	48.8476	1
0	1410	49.0478	1
1	1	0	2
1	32	1.298404707713	2
1	55	1.820417977924	4
1	106	3.8026	2
1	134	4.987015349299	2
1	167	5.665057837894	3
1	199	6.753877496298	5
1	258	7.991415488735	7
1	306	9.8086	3
1	316	11.0098	1
1	329	11.268952075178	1
1	351	12.286609513648	1
1	367	12.534731727842	2
1	390	13.065432085844	4
1	417	14.6134	2
1	442	15.431519655933	2
1	468	16.100383687409	3
1	495	17.6164	1
1	509	18.046943173386	1
1	525	18.254024864946	2
1	551	19.8186	1
1	566	20.532924018173	1
1	583	20.999991434058	1
1	604	21.752258674018	2
1	627	22.406067605315	4
1	680	23.903829219307	6
1	740	25.8246	3
1	776	27.064562473682	3
1	822	28.240381245393	4
1	866	29.497837361279	6
1	893	31.0298	3
1	927	31.799003565521	3
1	953	33.232	1
1	967	33.802792785494	1
1	984	34.044767299654	2
1	1015	34.767600151615	3
1	1048	35.284326742884	5
1	1103	37.236	2
1	1125	38.031811331948	2
1	1158	38.899068472116	4
1	1202	40.6394	2
1	1227	41.368971337714	2
1	1254	42.465434812161	3
1	1281	44.0428	1
1	1295	44.601991638459	1
1	1312	44.861988843428	2
1	1343	45.927470155136	3
1	1381	47.6464	1
1	1394	47.919459947619	1
1	1410	49.0478	0
2	2	0	1
2	34	1.298404707713	1
2	56	1.820417977924	1
2	107	3.8026	1
2	136	4.987015349299	1
2	168	5.665057837894	1
2	200	6.753877496298	1
2	259	7.991415488735	1
2	307	9.8086	1
2	317	11.0098	1
2	331	11.268952075178	1
2	353	12.286609513648	1
2	369	12.534731727842	1
2	391	13.065432085844	1
2	418	14.6134	1
2	443	15.431519655933	1
2	469	16.100383687409	1
2	496	17.6164	1
2	511	18.046943173386	1
2	527	18.254024864946	1
2	552	19.8186	1
2	568	20.532924018173	1
2	585	20.999991434058	1
2	606	21.752258674018	1
2	628	22.406067605315	1
2	682	23.903829219307	1
2	741	25.8246	1
2	777	27.064562473682	1
2	824	28.240381245393	1
2	867	29.497837361279	1
2	894	31.0298	1
2	929	31.799003565521	1
2	954	33.232	1
2	969	33.802792785494	1
2	986	34.044767299654	1
2	1017	34.767600151615	1
2	1049	35.284326742884	1
2	1104	37.236	1
2	1126	38.031811331948	1
2	1160	38.899068472116	1
2	1203	40.6394	1
2	1228	41.368971337714	1
2	1255	42.465434812161	1
2	1282	44.0428	1
2	1297	44.601991638459	1
2	1314	44.861988843428	1
2	1345	45.927470155136	1
2	1382	47.6464	1
2	1396	47.919459947619	1
2	1411	49.0478	1
3	10	0.885260666985	1
3	20	1.098204707713	1
3	23	1.110786884288	1
3	41	1.520217977924	1
3	65	2.122714752752	1
3	76	2.473844876294	1
3	93	3.302757656789	1
3	113	4.372715954934	1
3	126	4.786815349299	1
3	144	5.312079900445	1
3	151	5.464857837894	1
3	154	5.480154214266	1
3	163	5.612589248779	1
3	179	6.353677496298	1
3	211	7.21127555901	1
3	217	7.39646874993	1
3	227	7.507624070724	1
3	238	7.691215488735	1
3	243	7.746708266185	1
3	251	7.844486413032	1
3	272	8.538281749246	1
3	293	9.229144928029	1
3	321	11.068752075178	1
3	341	12.086409513648	1
3	344	12.088783163029	1
3	357	12.334531727842	1
3	376	12.765232085844	1
3	404	14.094067447467	1
3	424	15.098840513282	1
3	431	15.231319655933	1
3	452	15.800183687409	1
3	456	15.818840765396	1
3	479	16.586393394878	1
3	501	17.846743173386	1
3	515	18.053824864946	1
3	536	18.833752886188	1
3	558	20.332724018173	1
3	575	20.799791434058	1
3	594	21.552058674018	1
3	598	21.63662237845	1
3	614	22.105867605315	1
3	633	22.426188426755	1
3	638	22.518198060657	1
3	660	23.423217802749	1
3	670	23.703629219307	1
3	690	24.229728988484	1
3	704	24.902489701689	1
3	710	25.023488804893	1
3	725	25.373347240215	1
3	747	26.42285091698	1
3	758	26.764362473682	1
3	764	26.831190853246	1
3	786	27.408225772667	1
3	793	27.60831620776	1
3	812	28.040181245393	1
3	815	28.080868059397	1
3	832	28.711442610506	1
3	835	28.746302468641	1
3	856	29.297637361279	1
3	878	30.167704139262	1
3	898	31.149244740556	1
3	901	31.156359577891	1
3	917	31.598803565521	1
3	937	32.166765912187	1
3	959	33.602592785494	1
3	974	33.844567299654	1
3	990	34.075291128587	1
3	1005	34.567400151615	1
3	1008	34.62428950407	1
3	1022	34.869521427159	1
3	1036	35.084126742884	1
3	1053	35.401910188411	1
3	1059	35.474522596086	1
3	1064	35.522504298052	1
3	1089	36.58104220554	1
3	1110	37.731611331948	1
3	1113	37.760430284329	1
3	1131	38.108307937847	1
3	1148	38.698868472116	1
3	1151	38.776902351272	1
3	1168	39.252797104626	1
3	1189	40.042264250509	1
3	1209	41.068771337714	1
3	1212	41.15841622854	1
3	1223	41.29151353276	1
3	1240	42.165234812161	1
3	1267	43.331553407246	1
3	1287	44.401791638459	1
3	1302	44.661788843428	1
3	1318	44.884234087796	1
3	1335	45.727270155136	1
3	1353	46.27342894867	1
3	1363	46.483982463912	1
3	1386	47.719259947619	1
3	1407	49.011430500819	1
3	1435	51.456892571404	1
3	1439	51.693173085911	1
3	1444	52.071167545245	1
3	1447	52.17937310067	1
3	1456	53.430622287649	1
3	1461	53.729693038005	1
3	1465	53.940337745322	1
3	1468	53.999210070371	1
3	1472	54.083658352506	1
3	1480	55.116234288052	1
3	1488	56.226444595051	1
3	1492	56.324769692989	1
3	1498	56.970357256825	1
3	1503	57.26117373085	1
3	1508	57.804146277589	1
3	1520	59.536388263524	1
3	1525	59.880385272418	1
3	1541	62.515654600387	1
3	1545	62.779921803394	1
3	1550	63.145541413799	1
3	1556	63.676316257877	1
3	1564	64.725960000594	1
3	1567	64.823098300394	1
3	1571	64.99680786037	1
3	1575	65.109501647194	1
3	1580	65.655346459403	1
3	1585	65.959013031303	1
3	1595	67.357799827367	1
3	1601	67.967386193212	1
3	1606	68.426246799878	1
3	1611	68.705872840139	1
3	1616	69.241126470131	1
3	1619	69.242572268564	1
3	1622	69.266616735804	1
3	1628	69.744145229598	1
3	1632	70.009281193152	1
3	1636	70.090753677668	1
3	1639	70.140530363637	1
3	1642	70.190424138868	1
3	1646	70.409127383864	1
3	1650	70.569885324716	1
3	1654	70.81081637004	1
3	1660	71.458040308583	1
3	1668	72.349922108845	1
3	1672	72.495129272875	1
3	1675	72.519596976797	1
3	1678	72.655772432191	1
3	1683	72.992509473204	1
3	1688	73.282110069831	1
3	1692	73.509047886636	1
3	1695	73.661884769821	1
3	1701	74.269055743754	1
3	1705	74.342118269907	1
3	1709	74.597225595442	1
3	1715	75.122051570078	1
3	1718	75.148483742987	1
3	1722	75.307364107861	1
3	1731	76.579098241756	1
3	1736	77.066957331825	1
3	1744	77.931383800689	1
3	1749	78.376547921936	1
3	1758	79.639263943808	1
3	1763	79.898618861325	1
3	1767	80.222883937853	1
3	1774	80.956026737138	1
3	1780	81.514226397333	1
3	1788	82.545455865065	1
3	1793	82.977725737861	1
3	1796	83.064438155561	1
3	1802	83.610976314337	1
3	1808	84.167882206267	1
3	1812	84.350344438762	1
3	1816	84.550076193138	1
3	1820	84.764828461684	1
3	1825	85.188455858812	1
3	1828	85.203892614461	1
3	1831	85.227424352556	1
3	1835	85.444060132402	1
3	1840	85.686539415256	1
3	1843	85.852842614319	1
3	1846	85.853006153426	1
3	1852	86.342301072797	1
3	1858	86.997859167963	1
3	1864	87.498004459435	1
3	1868	87.782354264574	1
3	1873	88.169119631774	1
3	1880	88.995120869376	1
3	1884	89.202984216482	1
3	1888	89.293879794969	1
3	1891	89.33372463643	1
3	1895	89.628386915297	1
3	1910	91.94118140222	1
3	1919	93.14933612459	1
3	1923	93.398379852699	1
3	1935	95.284269815314	1
3	1940	95.694245705922	1
3	1945	96.094211564498	1
3	1960	98.359677895439	1
3	1963	98.426862673503	1
3	1968	98.775583440658	1
3	1972	99.024926606941	1
3	1976	99.254802031283	1
3	1985	100.337967113118	1
3	1990	100.778094908846	1
3	1995	101.153883512331	1
3	2000	101.671727505761	1
3	2004	101.730200018807	1
3	2012	102.88441699533	1
3	2021	104.041765643434	1
3	2024	104.084081747311	1
3	2029	104.330903616438	1
3	2034	104.705670767217	1
3	2039	105.264736904683	1
3	2047	106.178553024589	1
3	2050	106.25027236625	1
3	2057	107.011065234478	1
3	2062	107.482118050751	1
3	2068	108.011283484756	1
3	2075	108.776776596005	1
3	2078	108.799456544122	1
3	2087	110.004579684975	1
3	2091	110.263655645855	1
3	2095	110.358842893758	1
3	2100	110.855798017536	1
3	2104	110.921272620402	1
3	2108	111.135046093168	1
3	2113	111.539705744271	1
3	2118	111.97058065881	1
3	2121	111.988348907714	1
3	2127	112.659883325882	1
3	2133	113.201998289425	1
3	2136	113.306034692265	1
3	2140	113.444321025598	1
3	2143	113.475398766944	1
3	2147	113.611390822672	1
3	2151	113.858717810178	1
3	2160	114.973941706995	1
3	2163	115.042558096778	1
3	2166	115.080683987956	1
3	2170	115.198952263632	1
3	2175	115.613918102832	1
3	2185	116.915942887622	1
3	2188	117.087326963597	1
3	2193	117.360150083839	1
3	2197	117.597884473292	1
3	2201	117.746015383965	1
3	2204	117.747767591322	1
3	2211	118.585565122181	1
3	2215	118.795676016248	1
3	2218	118.863496330222	1
3	2234	121.464084033144	1
3	2241	122.28304625679	1
3	2245	122.446393528937	1
3	2250	122.82707747404	1
3	2257	123.620273069299	1
3	2263	124.167436696263	1
3	2276	126.132654991494	1
3	2279	126.22848882805	1
3	2287	127.242408571766	1
3	2291	127.364438730311	1
3	2297	128.075386049031	1
3	2303	128.696890463835	1
3	2307	128.838852777561	1
3	2310	128.868762856425	1
3	2315	129.306455481279	1
3	2319	129.477955754535	1
3	2331	131.271447987915	1
3	2337	131.740515059806	1
3	2343	132.454900034582	1
3	2347	132.609209866798	1
3	2357	134.019423171488	1
3	2361	134.307612212998	1
3	2368	134.93390333708	1
3	2378	136.466324538094	1
3	2382	136.720473401148	1
3	2393	138.277495519701	1
3	2396	138.318140332375	1
3	2402	138.820004443292	1
3	2406	138.969564427377	1
3	2411	139.427025342074	1
3	2414	139.515689254289	1
3	2417	139.524672176182	1
3	2425	140.342912847682	1
3	2439	142.630199464202	1
3	2443	142.885622187588	1
3	2449	143.396245562823	1
3	2454	143.913418365291	1
3	2462	144.854848126166	1
3	2466	144.965456401309	1
3	2471	145.46017218236	1
3	2474	145.483399029074	1
3	2483	146.742379125601	1
3	2492	147.761920237995	1
3	2497	148.28844476106	1
3	2505	149.292718160014	1
3	2512	150.033067810122	1
3	2516	150.158342776387	1
3	2519	150.254819817283	1
3	2523	150.534964772536	1
3	2528	150.87060753244	1
3	2535	151.688604721478	1
3	2542	152.398891310234	1
3	2545	152.52255092189	1
3	2549	152.588854991918	1
3	2553	152.909309298143	1
3	2558	153.256777582934	1
3	2562	153.41438032046	1
3	2565	153.523438891231	1
3	2572	154.159575268485	1
3	2577	154.583896919756	1
3	2584	155.451204541624	1
3	2592	156.476878371137	1
3	2601	157.557524893352	1
3	2604	157.614181680199	1
3	2608	157.757298082402	1
3	2615	158.723167104279	1
3	2628	160.684741443285	1
3	2634	161.184361304648	1
3	2638	161.365949673462	1
3	2643	161.899954734731	1
3	2652	163.096001983993	1
3	2656	163.228465298816	1
3	2659	163.309870829054	1
3	2664	163.653617261329	1
3	2668	163.931698404554	1
3	2672	164.142202540936	1
3	2679	164.810925057387	1
3	2682	164.833893739427	1
3	2693	166.463412330207	1
3	2696	166.482111615341	1
3	2702	166.973201183556	1
3	2706	167.335300256865	1
3	2713	168.004967355194	1
3	2720	168.824542666427	1
3	2723	168.872654218653	1
3	2728	169.361565756846	1
3	2732	169.534083993721	1
3	2737	169.825874641694	1
3	2741	170.089518689913	1
3	2745	170.199924895888	1
3	2748	170.214151487931	1
3	2756	171.307215486709	1
3	2767	172.948428426447	1
3	2773	173.496782245345	1
3	2777	173.637910184613	1
3	2784	174.553836944645	1
3	2790	175.069744870756	1
3	2799	176.202083032281	1
3	2804	176.724081427609	1
3	2810	177.278619195858	1
3	2814	177.438501307268	1
3	2821	178.349877536147	1
3	2826	178.745680828799	1
3	2832	179.319537475138	1
3	2838	179.794712753665	1
3	2841	179.807548184139	1
3	2850	181.040104036675	1
3	2857	181.872996742033	1
3	2870	183.868139378064	1
3	2874	183.984320908347	1
3	2877	184.090084457245	1
3	2882	184.45814753356	1
3	2885	184.468368222565	1
3	2890	184.900214116103	1
3	2893	184.91052010833	1
3	2898	185.307533511375	1
3	2902	185.440546554023	1
3	2910	186.556771762292	1
3	2920	187.929661918509	1
3	2924	188.044949719947	1
3	2931	188.969613221503	1
3	2934	188.978459033453	1
3	2941	189.673327325128	1
3	2950	190.80667585769	1
3	2954	191.04386512454	1
3	2961	191.858313382555	1
3	2965	192.173359826171	1
3	2970	192.539413277125	1
3	2976	193.051224371094	1
3	2980	193.37486068737	1
3	2983	193.375452980306	1
3	2987	193.449927254545	1
3	2994	194.281350067013	1
3	2998	194.529459745803	1
3	3005	195.363253425372	1
3	3009	195.422919621514	1
3	3013	195.712916472116	1
3	3020	196.467827886003	1
3	3024	196.747854288485	1
3	3028	196.795985432367	1
3	3036	197.9056765778	1
3	3040	198.044042082135	1
3	3047	198.898555667977	1
3	3053	199.410230142625	1
3	3056	199.518986820584	1
3	3060	199.727727709099	1
4	11	0.885260666985	1
4	21	1.098204707713	1
4	24	1.110786884288	1
4	42	1.520217977924	2
4	66	2.122714752752	1
4	77	2.473844876294	1
4	94	3.302757656789	1
4	114	4.372715954934	1
4	127	4.786815349299	1
4	145	5.312079900445	1
4	152	5.464857837894	1
4	155	5.480154214266	1
4	164	5.612589248779	2
4	180	6.353677496298	3
4	212	7.21127555901	1
4	218	7.39646874993	1
4	228	7.507624070724	1
4	239	7.691215488735	1
4	244	7.746708266185	1
4	252	7.844486413032	1
4	273	8.538281749246	2
4	294	9.229144928029	1
4	322	11.068752075178	1
4	342	12.086409513648	1
4	345	12.088783163029	1
4	358	12.334531727842	2
4	377	12.765232085844	2
4	405	14.094067447467	1
4	425	15.098840513282	1
4	432	15.231319655933	1
4	453	15.800183687409	1
4	457	15.818840765396	1
4	480	16.586393394878	1
4	502	17.846743173386	1
4	516	18.053824864946	1
4	537	18.833752886188	1
4	559	20.332724018173	1
4	576	20.799791434058	1
4	595	21.552058674018	1
4	599	21.63662237845	1
4	615	22.105867605315	2
4	634	22.426188426755	1
4	639	22.518198060657	1
4	661	23.423217802749	1
4	671	23.703629219307	1
4	691	24.229728988484	1
4	705	24.902489701689	1
4	711	25.023488804893	1
4	726	25.373347240215	1
4	748	26.42285091698	1
4	759	26.764362473682	1
4	765	26.831190853246	1
4	787	27.408225772667	1
4	794	27.60831620776	1
4	813	28.040181245393	1
4	816	28.080868059397	1
4	833	28.711442610506	2
4	836	28.746302468641	2
4	857	29.297637361279	1
4	879	30.167704139262	1
4	899	31.149244740556	1
4	902	31.156359577891	1
4	918	31.598803565521	1
4	938	32.166765912187	1
4	960	33.602592785494	1
4	975	33.844567299654	1
4	991	34.075291128587	1
4	1006	34.567400151615	1
4	1009	34.62428950407	1
4	1023	34.869521427159	2
4	1037	35.084126742884	1
4	1054	35.401910188411	1
4	1060	35.474522596086	1
4	1065	35.522504298052	1
4	1090	36.58104220554	1
4	1111	37.731611331948	1
4	1114	37.760430284329	1
4	1132	38.108307937847	1
4	1149	38.698868472116	1
4	1152	38.776902351272	1
4	1169	39.252797104626	2
4	1190	40.042264250509	1
4	1210	41.068771337714	1
4	1213	41.15841622854	1
4	1224	41.29151353276	1
4	1241	42.165234812161	2
4	1268	43.331553407246	1
4	1288	44.401791638459	1
4	1303	44.661788843428	1
4	1319	44.884234087796	1
4	1336	45.727270155136	1
4	1354	46.27342894867	1
4	1364	46.483982463912	1
4	1387	47.719259947619	1
4	1408	49.011430500819	1
4	1436	51.456892571404	1
4	1440	51.693173085911	2
4	1445	52.071167545245	3
4	1448	52.17937310067	4
4	1457	53.430622287649	5
4	1462	53.729693038005	6
4	1466	53.940337745322	7
4	1469	53.999210070371	8
4	1473	54.083658352506	9
4	1481	55.116234288052	10
4	1489	56.226444595051	11
4	1493	56.324769692989	12
4	1499	56.970357256825	13
4	1504	57.26117373085	14
4	1509	57.804146277589	15
4	1521	59.536388263524	16
4	1526	59.880385272418	17
4	1542	62.515654600387	18
4	1546	62.779921803394	19
4	1551	63.145541413799	20
4	1557	63.676316257877	21
4	1565	64.725960000594	22
4	1568	64.823098300394	23
4	1572	64.99680786037	24
4	1576	65.109501647194	25
4	1581	65.655346459403	26
4	1586	65.959013031303	27
4	1596	67.357799827367	28
4	1602	67.967386193212	29
4	1607	68.426246799878	30
4	1612	68.705872840139	31
4	1617	69.241126470131	32
4	1620	69.242572268564	33
4	1623	69.266616735804	34
4	1629	69.744145229598	35
4	1633	70.009281193152	36
4	1637	70.090753677668	37
4	1640	70.140530363637	38
4	1643	70.190424138868	39
4	1647	70.409127383864	40
4	1651	70.569885324716	41
4	1655	70.81081637004	42
4	1661	71.458040308583	43
4	1669	72.349922108845	44
4	1673	72.495129272875	45
4	1676	72.519596976797	46
4	1679	72.655772432191	47
4	1684	72.992509473204	48
4	1689	73.282110069831	49
4	1693	73.509047886636	50
4	1696	73.661884769821	51
4	1702	74.269055743754	52
4	1706	74.342118269907	53
4	1710	74.597225595442	54
4	1716	75.122051570078	55
4	1719	75.148483742987	56
4	1723	75.307364107861	57
4	1732	76.579098241756	58
4	1737	77.066957331825	59
4	1745	77.931383800689	60
4	1750	78.376547921936	61
4	1759	79.639263943808	62
4	1764	79.898618861325	63
4	1768	80.222883937853	64
4	1775	80.956026737138	65
4	1781	81.514226397333	66
4	1789	82.545455865065	67
4	1794	82.977725737861	68
4	1797	83.064438155561	69
4	1803	83.610976314337	70
4	1809	84.167882206267	71
4	1813	84.350344438762	72
4	1817	84.550076193138	73
4	1821	84.764828461684	74
4	1826	85.188455858812	75
4	1829	85.203892614461	76
4	1832	85.227424352556	77
4	1836	85.444060132402	78
4	1841	85.686539415256	79
4	1844	85.852842614319	80
4	1847	85.853006153426	81
4	1853	86.342301072797	82
4	1859	86.997859167963	83
4	1865	87.498004459435	84
4	1869	87.782354264574	85
4	1874	88.169119631774	86
4	1881	88.995120869376	87
4	1885	89.202984216482	88
4	1889	89.293879794969	89
4	1892	89.33372463643	90
4	1896	89.628386915297	91
4	1911	91.94118140222	92
4	1920	93.14933612459	93
4	1924	93.398379852699	94
4	1936	95.284269815314	95
4	1941	95.694245705922	96
4	1946	96.094211564498	97
4	1961	98.359677895439	98
4	1964	98.426862673503	99
4	1969	98.775583440658	100
4	1973	99.024926606941	101
4	1977	99.254802031283	102
4	1986	100.337967113118	103
4	1991	100.778094908846	104
4	1996	101.153883512331	105
4	2001	101.671727505761	106
4	2005	101.730200018807	107
4	2013	102.88441699533	108
4	2022	104.041765643434	109
4	2025	104.084081747311	110
4	2030	104.330903616438	111
4	2035	104.705670767217	112
4	2040	105.264736904683	113
4	2048	106.178553024589	114
4	2051	106.25027236625	115
4	2058	107.011065234478	116
4	2063	107.482118050751	117
4	2069	108.011283484756	118
4	2076	108.776776596005	119
4	2079	108.799456544122	120
4	2088	110.004579684975	121
4	2092	110.263655645855	122
4	2096	110.358842893758	123
4	2101	110.855798017536	124
4	2105	110.921272620402	125
4	2109	111.135046093168	126
4	2114	111.539705744271	127
4	2119	111.97058065881	128
4	2122	111.988348907714	129
4	2128	112.659883325882	130
4	2134	113.201998289425	131
4	2137	113.306034692265	132
4	2141	113.444321025598	133
4	2144	113.475398766944	134
4	2148	113.611390822672	135
4	2152	113.858717810178	136
4	2161	114.973941706995	137
4	2164	115.042558096778	138
4	2167	115.080683987956	139
4	2171	115.198952263632	140
4	2176	115.613918102832	141
4	2186	116.915942887622	142
4	2189	117.087326963597	143
4	2194	117.360150083839	144
4	2198	117.597884473292	145
4	2202	117.746015383965	146
4	2205	117.747767591322	147
4	2212	118.585565122181	148
4	2216	118.795676016248	149
4	2219	118.863496330222	150
4	2235	121.464084033144	151
4	2242	122.28304625679	152
4	2246	122.446393528937	153
4	2251	122.82707747404	154
4	2258	123.620273069299	155
4	2264	124.167436696263	156
4	2277	126.132654991494	157
4	2280	126.22848882805	158
4	2288	127.242408571766	159
4	2292	127.364438730311	160
4	2298	128.075386049031	161
4	2304	128.696890463835	162
4	2308	128.838852777561	163
4	2311	128.868762856425	164
4	2316	129.306455481279	165
4	2320	129.477955754535	166
4	2332	131.271447987915	167
4	2338	131.740515059806	168
4	2344	132.454900034582	169
4	2348	132.609209866798	170
4	2358	134.019423171488	171
4	2362	134.307612212998	172
4	2369	134.93390333708	173
4	2379	136.466324538094	174
4	2383	136.720473401148	175
4	2394	138.277495519701	176
4	2397	138.318140332375	177
4	2403	138.820004443292	178
4	2407	138.969564427377	179
4	2412	139.427025342074	180
4	2415	139.515689254289	181
4	2418	139.524672176182	182
4	2426	140.342912847682	183
4	2440	142.630199464202	184
4	2444	142.885622187588	185
4	2450	143.396245562823	186
4	2455	143.913418365291	187
4	2463	144.854848126166	188
4	2467	144.965456401309	189
4	2472	145.46017218236	190
4	2475	145.483399029074	191
4	2484	146.742379125601	192
4	2493	147.761920237995	193
4	2498	148.28844476106	194
4	2506	149.292718160014	195
4	2513	150.033067810122	196
4	2517	150.158342776387	197
4	2520	150.254819817283	198
4	2524	150.534964772536	199
4	2529	150.87060753244	200
4	2536	151.688604721478	201
4	2543	152.398891310234	202
4	2546	152.52255092189	203
4	2550	152.588854991918	204
4	2554	152.909309298143	205
4	2559	153.256777582934	206
4	2563	153.41438032046	207
4	2566	153.523438891231	208
4	2573	154.159575268485	209
4	2578	154.583896919756	210
4	2585	155.451204541624	211
4	2593	156.476878371137	212
4	2602	157.557524893352	213
4	2605	157.614181680199	214
4	2609	157.757298082402	215
4	2616	158.723167104279	216
4	2629	160.684741443285	217
4	2635	161.184361304648	218
4	2639	161.365949673462	219
4	2644	161.899954734731	220
4	2653	163.096001983993	221
4	2657	163.228465298816	222
4	2660	163.309870829054	223
4	2665	163.653617261329	224
4	2669	163.931698404554	225
4	2673	164.142202540936	226
4	2680	164.810925057387	227
4	2683	164.833893739427	228
4	2694	166.463412330207	229
4	2697	166.482111615341	230
4	2703	166.973201183556	231
4	2707	167.335300256865	232
4	2714	168.004967355194	233
4	2721	168.824542666427	234
4	2724	168.872654218653	235
4	2729	169.361565756846	236
4	2733	169.534083993721	237
4	2738	169.825874641694	238
4	2742	170.089518689913	239
4	2746	170.199924895888	240
4	2749	170.214151487931	241
4	2757	171.307215486709	242
4	2768	172.948428426447	243
4	2774	173.496782245345	244
4	2778	173.637910184613	245
4	2785	174.553836944645	246
4	2791	175.069744870756	247
4	2800	176.202083032281	248
4	2805	176.724081427609	249
4	2811	177.278619195858	250
4	2815	177.438501307268	251
4	2822	178.349877536147	252
4	2827	178.745680828799	253
4	2833	179.319537475138	254
4	2839	179.794712753665	255
4	2842	179.807548184139	256
4	2851	181.040104036675	257
4	2858	181.872996742033	258
4	2871	183.868139378064	259
4	2875	183.984320908347	260
4	2878	184.090084457245	261
4	2883	184.45814753356	262
4	2886	184.468368222565	263
4	2891	184.900214116103	264
4	2894	184.91052010833	265
4	2899	185.307533511375	266
4	2903	185.440546554023	267
4	2911	186.556771762292	268
4	2921	187.929661918509	269
4	2925	188.044949719947	270
4	2932	188.969613221503	271
4	2935	188.978459033453	272
4	2942	189.673327325128	273
4	2951	190.80667585769	274
4	2955	191.04386512454	275
4	2962	191.858313382555	276
4	2966	192.173359826171	277
4	2971	192.539413277125	278
4	2977	193.051224371094	279
4	2981	193.37486068737	280
4	2984	193.375452980306	281
4	2988	193.449927254545	282
4	2995	194.281350067013	283
4	2999	194.529459745803	284
4	3006	195.363253425372	285
4	3010	195.422919621514	286
4	3014	195.712916472116	287
4	3021	196.467827886003	288
4	3025	196.747854288485	289
4	3029	196.795985432367	290
4	3037	197.9056765778	291
4	3041	198.044042082135	292
4	3048	198.898555667977	293
4	3054	199.410230142625	294
4	3057	199.518986820584	295
4	3061	199.727727709099	296
5	12	0.885260666985	1
5	22	1.098204707713	2
5	43	1.520217977924	3
5	45	1.620217977924	4
5	67	2.122714752752	5
5	78	2.473844876294	6
5	95	3.302757656789	7
5	115	4.372715954934	8
5	128	4.786815349299	9
5	146	5.312079900445	10
5	153	5.464857837894	11
5	181	6.353677496298	12
5	183	6.453677496298	13
5	186	6.553677496298	14
5	213	7.21127555901	15
5	219	7.39646874993	16
5	229	7.507624070724	17
5	240	7.691215488735	18
5	245	7.791215488735	19
5	274	8.538281749246	20
5	276	8.638281749246	21
5	295	9.229144928029	22
5	323	11.068752075178	23
5	343	12.086409513648	24
5	359	12.334531727842	25
5	378	12.765232085844	26
5	380	12.865232085844	27
5	406	14.094067447467	28
5	426	15.098840513282	29
5	433	15.231319655933	30
5	454	15.800183687409	31
5	458	15.900183687409	32
5	481	16.586393394878	33
5	503	17.846743173386	34
5	517	18.053824864946	35
5	538	18.833752886188	36
5	560	20.332724018173	37
5	577	20.799791434058	38
5	596	21.552058674018	39
5	616	22.105867605315	40
5	617	22.205867605315	41
5	635	22.426188426755	42
5	640	22.526188426755	43
5	662	23.423217802749	44
5	672	23.703629219307	45
5	692	24.229728988484	46
5	706	24.902489701689	47
5	712	25.023488804893	48
5	727	25.373347240215	49
5	749	26.42285091698	50
5	760	26.764362473682	51
5	766	26.864362473682	52
5	788	27.408225772667	53
5	795	27.60831620776	54
5	814	28.040181245393	55
5	834	28.711442610506	56
5	837	28.811442610506	57
5	841	28.911442610506	58
5	858	29.297637361279	59
5	880	30.167704139262	60
5	900	31.149244740556	61
5	904	31.249244740556	62
5	919	31.598803565521	63
5	939	32.166765912187	64
5	961	33.602592785494	65
5	976	33.844567299654	66
5	992	34.075291128587	67
5	1007	34.567400151615	68
5	1024	34.869521427159	69
5	1027	34.969521427159	70
5	1038	35.084126742884	71
5	1055	35.401910188411	72
5	1061	35.501910188411	73
5	1066	35.601910188411	74
5	1091	36.58104220554	75
5	1112	37.731611331948	76
5	1115	37.831611331948	77
5	1133	38.108307937847	78
5	1150	38.698868472116	79
5	1170	39.252797104626	80
5	1171	39.352797104626	81
5	1191	40.042264250509	82
5	1211	41.068771337714	83
5	1214	41.168771337714	84
5	1242	42.165234812161	85
5	1244	42.265234812161	86
5	1269	43.331553407246	87
5	1289	44.401791638459	88
5	1304	44.661788843428	89
5	1320	44.884234087796	90
5	1337	45.727270155136	91
5	1355	46.27342894867	92
5	1365	46.483982463912	93
5	1388	47.719259947619	94
5	1409	49.011430500819	95
6	14	0.985360666985	1
6	26	1.198304707713	1
6	46	1.620317977924	1
6	49	1.720317977924	1
6	70	2.222814752752	1
6	82	2.573944876294	1
6	98	3.402857656789	1
6	118	4.472815954934	1
6	131	4.886915349299	1
6	149	5.412179900445	1
6	160	5.564957837894	1
6	184	6.453777496298	1
6	187	6.553777496298	1
6	193	6.653777496298	1
6	215	7.31137555901	1
6	225	7.49656874993	1
6	234	7.607724070724	1
6	246	7.791315488735	1
6	254	7.891315488735	1
6	277	8.638381749246	1
6	280	8.738381749246	1
6	297	9.329244928029	1
6	325	11.168852075178	1
6	347	12.186509513648	1
6	362	12.434631727842	1
6	381	12.865332085844	1
6	384	12.965332085844	1
6	408	14.194167447467	1
6	428	15.198940513282	1
6	438	15.331419655933	1
6	459	15.900283687409	1
6	462	16.000283687409	1
6	484	16.686493394878	1
6	505	17.946843173386	1
6	519	18.153924864946	1
6	540	18.933852886188	1
6	563	20.432824018173	1
6	580	20.899891434058	1
6	601	21.652158674018	1
6	618	22.205967605315	1
6	622	22.305967605315	1
6	641	22.526288426755	1
6	645	22.626288426755	1
6	664	23.523317802749	1
6	674	23.803729219307	1
6	694	24.329828988484	1
6	708	25.002589701689	1
6	718	25.123588804893	1
6	730	25.473447240215	1
6	752	26.52295091698	1
6	767	26.864462473682	1
6	770	26.964462473682	1
6	791	27.508325772667	1
6	801	27.70841620776	1
6	818	28.140281245393	1