version 3
run FeedbackVersion-15-20240511-20:45:11-11876
attr configname FeedbackVersion
attr datetime 20240511-20:45:11
attr datetimef 20240511-204511
attr experiment FeedbackVersion
attr inifile omnetpp.ini
attr iterationvars $genInterval=0.85
attr iterationvarsd genInterval=0.85
attr iterationvarsf genInterval=0.85-
attr measurement $genInterval=0.85
attr network NetworkFV
attr processid 11876
attr repetition 0
attr replication #0
attr resultdir results
attr runnumber 15
attr seedset 15
itervar genInterval 0.85
config network NetworkFV
config sim-time-limit 200s
config NetworkFV.nodeTx.gen.generationInterval exponential(0.85)
config NetworkFV.nodeTx.gen.packetByteSize 12500
config NetworkFV.queueOne.bufferSize 200
config NetworkFV.nodeRx.queue.bufferSize 200
config NetworkFV.nodeTx.queue.bufferSize 2000000
config NetworkFV.queueZero.bufferSize 200

vector 0 NetworkFV.nodeRx.queue PacketsLost ETV
vector 1 NetworkFV.nodeRx.queue PacketsAsked ETV
vector 2 NetworkFV.queueOne bufferSize ETV
vector 3 NetworkFV.nodeTx.gen packetGen ETV
vector 4 NetworkFV.nodeTx.queue BufferSize ETV
vector 5 NetworkFV.nodeTx.queue PacketsSent ETV
vector 6 NetworkFV.queueZero bufferSize ETV
vector 7 NetworkFV.nodeRx.queue BufferSize ETV
vector 8 NetworkFV.nodeRx.sink Delay ETV
vector 9 NetworkFV.nodeRx.sink packetUsed ETV
0	1	0	1
0	6	0.2	1
0	7	0.4	1
0	8	0.6	1
0	9	0.8	1
0	10	1	1
0	11	1.2	1
0	16	1.4	1
0	17	1.6	1
0	24	1.8	1
0	39	2.2002	1
0	40	2.4004	1
0	41	2.6006	1
0	42	2.8008	1
0	43	3.001	1
0	50	3.2012	1
1	1	0	2
1	11	1.2	1
1	26	1.806078513779	0
1	32	2	1
1	50	3.2012	0
2	2	0	1
2	12	1.2	1
2	28	1.806078513779	1
2	33	2	1
2	51	3.2012	1
3	18	1.605878513779	1
3	44	3.033670692803	1
3	55	3.201210290764	1
3	66	3.961882484723	1
3	70	4.009394710251	1
3	73	4.109390969504	1
3	78	4.490780715754	1
3	88	5.941829032776	1
3	93	6.215645291345	1
3	107	8.43619798228	1
3	113	9.077967594149	1
3	116	9.099446788226	1
3	121	9.409838300807	1
3	131	10.878338981365	1
3	135	11.186963270937	1
3	144	12.268756754268	1
3	147	12.369475149015	1
3	151	12.572111188515	1
3	156	12.816526499502	1
3	167	14.566749339626	1
3	181	16.688802195025	1
3	184	16.716882145584	1
3	188	16.977598145022	1
3	194	17.570209466339	1
3	203	18.645498561612	1
3	209	19.325899186667	1
3	221	21.032521625805	1
3	241	24.571378271256	1
3	251	25.970033720731	1
3	257	26.436562648391	1
3	261	26.63751923806	1
3	271	28.161590345905	1
3	275	28.317151760721	1
3	283	29.357459992154	1
3	286	29.398117476146	1
3	296	30.664686980147	1
3	299	30.698874337261	1
3	302	30.804254057951	1
3	306	30.994171352129	1
3	311	31.378395852939	1
3	342	36.930299494772	1
3	352	38.404231874304	1
3	357	38.8007305636	1
3	362	39.055699146062	1
3	371	40.270557205015	1
3	374	40.34829734396	1
3	380	40.893534431057	1
3	397	43.695849203574	1
3	403	44.301702893314	1
3	407	44.573492030696	1
3	422	47.039444718979	1
3	427	47.259418963021	1
3	430	47.357944390632	1
3	436	47.909957975826	1
3	441	48.441771252279	1
3	446	48.802975431287	1
3	450	48.93271345747	1
3	455	49.325895808839	1
3	461	49.982899534142	1
3	470	51.090544513548	1
3	474	51.392503166449	1
3	479	51.759342872185	1
3	485	52.415236075107	1
3	492	53.179875131788	1
3	500	54.111049907646	1
3	510	55.573772537167	1
3	515	55.958885291188	1
3	526	57.613377975369	1
3	533	58.442603526876	1
3	540	59.197939680237	1
3	548	60.072801462541	1
3	558	61.562490417237	1
3	563	62.025481872034	1
3	571	63.034179821921	1
3	577	63.472987506021	1
3	581	63.808376674825	1
3	586	64.229114455979	1
3	590	64.351106726006	1
3	595	64.79412253215	1
3	606	66.371501366936	1
3	609	66.442067299356	1
3	617	67.369217652778	1
3	620	67.418951159455	1
3	629	68.541510031612	1
3	632	68.610843697476	1
3	639	69.366442823329	1
3	647	70.377660887292	1
3	651	70.529916464039	1
3	654	70.555070115585	1
3	660	71.116696014466	1
3	666	71.705008667455	1
3	674	72.815615677817	1
3	678	72.936566097793	1
3	687	74.233256531287	1
3	690	74.259809273037	1
3	695	74.513128984383	1
3	702	75.380327892382	1
3	706	75.516778409647	1
3	711	76.018777579488	1
3	714	76.064429408631	1
3	733	79.186706728241	1
3	738	79.539896418576	1
3	743	79.880005456222	1
3	747	80.08545952709	1
3	750	80.270284267542	1
3	760	81.506582795929	1
3	768	82.485918209089	1
3	773	83.015538689195	1
3	778	83.383142348136	1
3	792	85.593954125707	1
3	801	86.847016462229	1
3	806	87.198078495204	1
3	816	88.531944165421	1
3	819	88.626562570081	1
3	825	89.125309793564	1
3	836	90.855248996201	1
3	841	91.121389913547	1
3	851	92.564828381921	1
3	854	92.585393939147	1
3	858	92.793660075156	1
3	863	93.188190024913	1
3	868	93.503308441058	1
3	871	93.590724517018	1
3	878	94.419573100442	1
3	887	95.524742596072	1
3	893	96.182756408328	1
3	899	96.705640559572	1
3	912	98.760225868012	1
3	918	99.384979299679	1
3	922	99.665356842976	1
3	930	100.646099975422	1
3	937	101.419955713098	1
3	942	101.890762405198	1
3	946	102.053854587191	1
3	953	102.840114173705	1
3	961	103.760937094871	1
3	971	105.236889254506	1
3	978	105.919113051779	1
3	983	106.430171387472	1
3	988	106.767763593709	1
3	1000	108.628215777992	1
3	1006	109.169778647502	1
3	1010	109.381406306458	1
3	1013	109.438159734831	1
3	1017	109.534184332305	1
3	1024	110.340816730603	1
3	1027	110.351087134656	1
3	1036	111.618894873637	1
3	1050	113.744168257669	1
3	1067	116.573799669686	1
3	1074	117.4341340975	1
3	1100	121.977108612186	1
3	1104	122.188041493096	1
3	1109	122.556880689563	1
3	1115	123.231001572473	1
3	1122	124.020181772688	1
3	1136	126.175590337135	1
3	1144	127.19093078061	1
3	1156	128.962996608465	1
3	1160	129.188628469739	1
3	1163	129.304651989616	1
3	1167	129.441081497354	1
3	1172	129.748703506029	1
3	1175	129.794938427465	1
3	1179	130.092419923608	1
3	1194	132.478235043462	1
3	1201	133.193842342154	1
3	1204	133.327735038575	1
3	1213	134.484001361419	1
3	1220	135.300936759865	1
3	1225	135.641361961041	1
3	1230	136.037449263753	1
3	1237	136.833148497043	1
3	1245	137.737970243441	1
3	1251	138.354220111175	1
3	1255	138.639565503322	1
3	1269	140.784320194879	1
3	1274	141.326680457373	1
3	1278	141.51780574906	1
3	1282	141.559931742288	1
3	1285	141.561330936617	1
3	1292	142.452871472344	1
3	1295	142.516142139902	1
3	1303	143.505956535396	1
3	1309	143.969699628708	1
3	1325	146.682084579926	1
3	1331	147.269421205809	1
3	1335	147.368174432934	1
3	1341	148.092997658624	1
3	1351	149.489705213289	1
3	1363	151.294578151354	1
3	1367	151.40424203008	1
3	1371	151.594679354613	1
3	1382	153.160754734752	1
3	1387	153.625501053939	1
3	1391	153.813761494413	1
3	1405	156.102245759064	1
3	1419	158.206999802103	1
3	1424	158.59072570208	1
3	1430	159.205723951615	1
3	1433	159.218574127681	1
3	1442	160.489661528798	1
3	1455	162.444544998516	1
3	1462	163.289506658723	1
3	1469	164.101725762824	1
3	1473	164.306924759288	1
3	1491	167.314619104679	1
3	1497	167.790229647199	1
3	1504	168.616308251244	1
3	1517	170.748450830511	1
3	1532	173.088485126093	1
3	1540	174.088814107951	1
3	1547	174.865622968316	1
3	1555	175.82568772446	1
3	1558	175.953174580418	1
3	1567	177.062638938043	1
3	1575	178.026851865738	1
3	1578	178.103067679395	1
3	1584	178.774912063485	1
3	1592	179.669044184116	1
3	1595	179.676766888843	1
3	1602	180.475063562972	1
3	1611	181.742102665618	1
3	1616	182.075038570093	1
3	1620	182.185073992411	1
3	1623	182.341497885991	1
3	1629	182.960769624078	1
3	1634	183.25986806256	1
3	1642	184.191360189541	1
3	1645	184.192289429402	1
3	1654	185.41571776198	1
3	1658	185.658735009925	1
3	1673	188.062676951995	1
3	1681	189.051515243984	1
3	1684	189.164033988484	1
3	1688	189.350087191814	1
3	1692	189.550446583859	1
3	1703	191.161534852817	1
3	1708	191.548037929519	1
3	1720	193.199050104431	1
3	1725	193.635079218882	1
3	1733	194.67877738825	1
3	1740	195.436647114943	1
3	1746	196.092024422169	1
4	19	1.605878513779	1
4	45	3.033670692803	1
4	56	3.201210290764	1
4	67	3.961882484723	2
4	71	4.009394710251	3
4	74	4.109390969504	4
4	79	4.490780715754	5
4	89	5.941829032776	6
4	94	6.215645291345	7
4	108	8.43619798228	8
4	114	9.077967594149	9
4	117	9.099446788226	10
4	122	9.409838300807	11
4	132	10.878338981365	12
4	136	11.186963270937	13
4	145	12.268756754268	14
4	148	12.369475149015	15
4	152	12.572111188515	16
4	157	12.816526499502	17
4	168	14.566749339626	18
4	182	16.688802195025	19
4	185	16.716882145584	20
4	189	16.977598145022	21
4	195	17.570209466339	22
4	204	18.645498561612	23
4	210	19.325899186667	24
4	222	21.032521625805	25
4	242	24.571378271256	26
4	252	25.970033720731	27
4	258	26.436562648391	28
4	262	26.63751923806	29
4	272	28.161590345905	30
4	276	28.317151760721	31
4	284	29.357459992154	32
4	287	29.398117476146	33
4	297	30.664686980147	34
4	300	30.698874337261	35
4	303	30.804254057951	36
4	307	30.994171352129	37
4	312	31.378395852939	38
4	343	36.930299494772	39
4	353	38.404231874304	40
4	358	38.8007305636	41
4	363	39.055699146062	42
4	372	40.270557205015	43
4	375	40.34829734396	44
4	381	40.893534431057	45
4	398	43.695849203574	46
4	404	44.301702893314	47
4	408	44.573492030696	48
4	423	47.039444718979	49
4	428	47.259418963021	50
4	431	47.357944390632	51
4	437	47.909957975826	52
4	442	48.441771252279	53
4	447	48.802975431287	54
4	451	48.93271345747	55
4	456	49.325895808839	56
4	462	49.982899534142	57
4	471	51.090544513548	58
4	475	51.392503166449	59
4	480	51.759342872185	60
4	486	52.415236075107	61
4	493	53.179875131788	62
4	501	54.111049907646	63
4	511	55.573772537167	64
4	516	55.958885291188	65
4	527	57.613377975369	66
4	534	58.442603526876	67
4	541	59.197939680237	68
4	549	60.072801462541	69
4	559	61.562490417237	70
4	564	62.025481872034	71
4	572	63.034179821921	72
4	578	63.472987506021	73
4	582	63.808376674825	74
4	587	64.229114455979	75
4	591	64.351106726006	76
4	596	64.79412253215	77
4	607	66.371501366936	78
4	610	66.442067299356	79
4	618	67.369217652778	80
4	621	67.418951159455	81
4	630	68.541510031612	82
4	633	68.610843697476	83
4	640	69.366442823329	84
4	648	70.377660887292	85
4	652	70.529916464039	86
4	655	70.555070115585	87
4	661	71.116696014466	88
4	667	71.705008667455	89
4	675	72.815615677817	90
4	679	72.936566097793	91
4	688	74.233256531287	92
4	691	74.259809273037	93
4	696	74.513128984383	94
4	703	75.380327892382	95
4	707	75.516778409647	96
4	712	76.018777579488	97
4	715	76.064429408631	98
4	734	79.186706728241	99
4	739	79.539896418576	100
4	744	79.880005456222	101
4	748	80.08545952709	102
4	751	80.270284267542	103
4	761	81.506582795929	104
4	769	82.485918209089	105
4	774	83.015538689195	106
4	779	83.383142348136	107
4	793	85.593954125707	108
4	802	86.847016462229	109
4	807	87.198078495204	110
4	817	88.531944165421	111
4	820	88.626562570081	112
4	826	89.125309793564	113
4	837	90.855248996201	114
4	842	91.121389913547	115
4	852	92.564828381921	116
4	855	92.585393939147	117
4	859	92.793660075156	118
4	864	93.188190024913	119
4	869	93.503308441058	120
4	872	93.590724517018	121
4	879	94.419573100442	122
4	888	95.524742596072	123
4	894	96.182756408328	124
4	900	96.705640559572	125
4	913	98.760225868012	126
4	919	99.384979299679	127
4	923	99.665356842976	128
4	931	100.646099975422	129
4	938	101.419955713098	130
4	943	101.890762405198	131
4	947	102.053854587191	132
4	954	102.840114173705	133
4	962	103.760937094871	134
4	972	105.236889254506	135
4	979	105.919113051779	136
4	984	106.430171387472	137
4	989	106.767763593709	138
4	1001	108.628215777992	139
4	1007	109.169778647502	140
4	1011	109.381406306458	141
4	1014	109.438159734831	142
4	1018	109.534184332305	143
4	1025	110.340816730603	144
4	1028	110.351087134656	145
4	1037	111.618894873637	146
4	1051	113.744168257669	147
4	1068	116.573799669686	148
4	1075	117.4341340975	149
4	1101	121.977108612186	150
4	1105	122.188041493096	151
4	1110	122.556880689563	152
4	1116	123.231001572473	153
4	1123	124.020181772688	154
4	1137	126.175590337135	155
4	1145	127.19093078061	156
4	1157	128.962996608465	157
4	1161	129.188628469739	158
4	1164	129.304651989616	159
4	1168	129.441081497354	160
4	1173	129.748703506029	161
4	1176	129.794938427465	162
4	1180	130.092419923608	163
4	1195	132.478235043462	164
4	1202	133.193842342154	165
4	1205	133.327735038575	166
4	1214	134.484001361419	167
4	1221	135.300936759865	168
4	1226	135.641361961041	169
4	1231	136.037449263753	170
4	1238	136.833148497043	171
4	1246	137.737970243441	172
4	1252	138.354220111175	173
4	1256	138.639565503322	174
4	1270	140.784320194879	175
4	1275	141.326680457373	176
4	1279	141.51780574906	177
4	1283	141.559931742288	178
4	1286	141.561330936617	179
4	1293	142.452871472344	180
4	1296	142.516142139902	181
4	1304	143.505956535396	182
4	1310	143.969699628708	183
4	1326	146.682084579926	184
4	1332	147.269421205809	185
4	1336	147.368174432934	186
4	1342	148.092997658624	187
4	1352	149.489705213289	188
4	1364	151.294578151354	189
4	1368	151.40424203008	190
4	1372	151.594679354613	191
4	1383	153.160754734752	192
4	1388	153.625501053939	193
4	1392	153.813761494413	194
4	1406	156.102245759064	195
4	1420	158.206999802103	196
4	1425	158.59072570208	197
4	1431	159.205723951615	198
4	1434	159.218574127681	199
4	1443	160.489661528798	200
4	1456	162.444544998516	201
4	1463	163.289506658723	202
4	1470	164.101725762824	203
4	1474	164.306924759288	204
4	1492	167.314619104679	205
4	1498	167.790229647199	206
4	1505	168.616308251244	207
4	1518	170.748450830511	208
4	1533	173.088485126093	209
4	1541	174.088814107951	210
4	1548	174.865622968316	211
4	1556	175.82568772446	212
4	1559	175.953174580418	213
4	1568	177.062638938043	214
4	1576	178.026851865738	215
4	1579	178.103067679395	216
4	1585	178.774912063485	217
4	1593	179.669044184116	218
4	1596	179.676766888843	219
4	1603	180.475063562972	220
4	1612	181.742102665618	221
4	1617	182.075038570093	222
4	1621	182.185073992411	223
4	1624	182.341497885991	224
4	1630	182.960769624078	225
4	1635	183.25986806256	226
4	1643	184.191360189541	227
4	1646	184.192289429402	228
4	1655	185.41571776198	229
4	1659	185.658735009925	230
4	1674	188.062676951995	231
4	1682	189.051515243984	232
4	1685	189.164033988484	233
4	1689	189.350087191814	234
4	1693	189.550446583859	235
4	1704	191.161534852817	236
4	1709	191.548037929519	237
4	1721	193.199050104431	238
4	1726	193.635079218882	239
4	1734	194.67877738825	240
4	1741	195.436647114943	241
4	1747	196.092024422169	242
5	20	1.605878513779	1
5	46	3.033670692803	2
6	22	1.705978513779	1
6	48	3.133770692803	1
7	26	1.806078513779	1
7	59	3.233870692803	1
8	37	2.006078513779	0.4002
8	62	3.433870692803	0.4002
9	37	2.006078513779	1
9	62	3.433870692803	1

