version 3
run FeedbackVersion-0-20240511-20:45:11-11876
attr configname FeedbackVersion
attr datetime 20240511-20:45:11
attr datetimef 20240511-204511
attr experiment FeedbackVersion
attr inifile omnetpp.ini
attr iterationvars $genInterval=0.1
attr iterationvarsd genInterval=0.1
attr iterationvarsf genInterval=0.1-
attr measurement $genInterval=0.1
attr network NetworkFV
attr processid 11876
attr repetition 0
attr replication #0
attr resultdir results
attr runnumber 0
attr seedset 0
itervar genInterval 0.1
config network NetworkFV
config sim-time-limit 200s
config NetworkFV.nodeTx.gen.generationInterval exponential(0.1)
config NetworkFV.nodeTx.gen.packetByteSize 12500
config NetworkFV.queueOne.bufferSize 200
config NetworkFV.nodeRx.queue.bufferSize 200
config NetworkFV.nodeTx.queue.bufferSize 2000000
config NetworkFV.queueZero.bufferSize 200

vector 0 NetworkFV.nodeRx.queue PacketsLost ETV
vector 1 NetworkFV.nodeRx.queue PacketsAsked ETV
vector 2 NetworkFV.queueOne bufferSize ETV
vector 3 NetworkFV.nodeTx.gen packetGen ETV
vector 4 NetworkFV.nodeTx.queue BufferSize ETV
vector 5 NetworkFV.nodeTx.queue PacketsSent ETV
vector 6 NetworkFV.queueZero bufferSize ETV
vector 7 NetworkFV.nodeRx.queue BufferSize ETV
vector 8 NetworkFV.nodeRx.sink Delay ETV
vector 9 NetworkFV.nodeRx.sink packetUsed ETV
0	1	0	1
0	14	0.2	1
0	29	0.4	1
0	40	0.6002	1
0	66	1.0006	1
0	356	5.0046	1
0	781	10.41	1
0	1091	14.8144	1
0	1529	20.42	1
0	2567	34.6342	1
0	2573	34.8344	1
0	2588	35.0346	1
0	2612	35.2348	1
0	2624	35.435	1
0	2630	35.6352	1
0	2643	35.8354	1
0	2774	37.8374	1
0	2786	38.0376	1
0	2795	38.2378	1
0	2801	38.438	1
0	2810	38.6382	1
0	2820	38.8384	1
0	2877	39.6392	1
0	2886	39.8394	1
0	2898	40.0396	1
0	2901	40.2398	1
0	2910	40.44	1
0	2933	40.6402	1
0	2956	41.0406	1
0	2959	41.2408	1
0	2965	41.441	1
0	2977	41.6412	1
0	2992	41.8414	1
0	3050	42.6422	1
0	3060	42.8424	1
0	3110	43.6432	1
0	3120	43.8434	1
0	3193	44.8444	1
0	3199	45.0446	1
0	3216	45.2448	1
0	3310	46.6462	1
0	3316	46.8464	1
0	3322	47.0466	1
0	3331	47.2468	1
0	3343	47.447	1
0	3500	49.449	1
0	3506	49.6492	1
0	3518	49.8494	1
0	3524	50.0496	1
0	3548	50.2498	1
0	3563	50.45	1
0	3631	51.451	1
0	3640	51.6512	1
0	3652	51.8514	1
0	3655	52.0516	1
0	3674	52.2518	1
0	3743	53.2528	1
0	3746	53.453	1
0	3755	53.6532	1
0	3767	53.8534	1
0	3873	55.455	1
0	3879	55.6552	1
0	3882	55.8554	1
0	3891	56.0556	1
0	3898	56.2558	1
0	3909	56.456	1
0	4047	58.458	1
0	4053	58.6582	1
0	4056	58.8584	1
0	4062	59.0586	1
0	4069	59.2588	1
0	4075	59.459	1
0	4167	60.6602	1
0	4179	60.8604	1
0	4185	61.0606	1
0	4191	61.2608	1
0	4198	61.461	1
0	4209	61.6612	1
0	4241	62.2618	1
0	4332	63.463	1
0	4346	63.6632	1
0	4423	64.6642	1
0	4429	64.8644	1
0	4444	65.0646	1
0	4540	66.2658	1
0	4546	66.466	1
0	4561	66.6662	1
0	4570	66.8664	1
0	4589	67.0666	1
0	4720	68.8684	1
0	4732	69.0686	1
0	4738	69.2688	1
0	4753	69.469	1
0	4759	69.6692	1
0	4776	69.8694	1
0	4852	70.8704	1
0	4858	71.0706	1
0	4876	71.2708	1
0	4885	71.471	1
0	4899	71.6712	1
0	4976	72.8724	1
0	4982	73.0726	1
0	4999	73.2728	1
0	5103	74.6742	1
0	5112	74.8744	1
0	5115	75.0746	1
0	5127	75.2748	1
0	5136	75.475	1
0	5143	75.6752	1
0	5152	75.8754	1
0	5203	76.6762	1
0	5216	76.8764	1
0	5259	77.6772	1
0	5274	77.8774	1
0	5289	78.0776	1
0	5361	79.2788	1
0	5373	79.479	1
0	5382	79.6792	1
0	5403	79.8794	1
0	5525	81.481	1
0	5533	81.6812	1
0	5551	81.8814	1
0	5563	82.0816	1
0	5584	82.2818	1
0	5735	84.484	1
0	5744	84.6842	1
0	5750	84.8844	1
0	5753	85.0846	1
0	5768	85.2848	1
0	5778	85.485	1
0	5862	86.6862	1
0	5874	86.8864	1
0	5883	87.0866	1
0	5892	87.2868	1
0	5901	87.487	1
0	5916	87.6872	1
0	5944	88.2878	1
0	5956	88.488	1
0	5973	88.6882	1
0	6009	89.2888	1
0	6047	90.0896	1
0	6060	90.2898	1
0	6127	91.2908	1
0	6130	91.491	1
0	6143	91.6912	1
0	6247	93.0926	1
0	6259	93.2928	1
0	6268	93.493	1
0	6283	93.6932	1
0	6293	93.8934	1
0	6432	95.8954	1
0	6435	96.0956	1
0	6444	96.2958	1
0	6447	96.496	1
0	6453	96.6962	1
0	6468	96.8964	1
0	6544	97.8974	1
0	6550	98.0976	1
0	6559	98.2978	1
0	6562	98.498	1
0	6574	98.6982	1
0	6581	98.8984	1
0	6591	99.0986	1
0	6655	100.0996	1
0	6755	101.501	1
0	6772	101.7012	1
0	6848	102.9024	1
0	6854	103.1026	1
0	6869	103.3028	1
0	6884	103.503	1
0	6990	105.1046	1
0	7008	105.3048	1
0	7017	105.505	1
0	7026	105.7052	1
0	7044	105.9054	1
0	7059	106.1056	1
0	7130	107.1066	1
0	7139	107.3068	1
0	7151	107.507	1
0	7168	107.7072	1
0	7236	108.7082	1
0	7239	108.9084	1
0	7254	109.1086	1
0	7329	110.3098	1
0	7338	110.51	1
0	7350	110.7102	1
0	7356	110.9104	1
0	7368	111.1106	1
0	7497	113.1126	1
0	7506	113.3128	1
0	7518	113.513	1
0	7521	113.7132	1
0	7530	113.9134	1
0	7540	114.1136	1
0	7604	115.1146	1
0	7613	115.3148	1
0	7616	115.515	1
0	7628	115.7152	1
0	7712	116.9164	1
0	7718	117.1166	1
0	7735	117.3168	1
0	7846	118.7182	1
0	7852	118.9184	1
0	7861	119.1186	1
0	7870	119.3188	1
0	7879	119.519	1
0	7894	119.7192	1
0	7936	120.52	1
0	7951	120.7202	1
0	7970	120.9204	1
0	8012	121.7212	1
0	8024	121.9214	1
0	8041	122.1216	1
0	8124	123.3228	1
0	8136	123.523	1
0	8142	123.7232	1
0	8152	123.9234	1
0	8258	125.525	1
0	8261	125.7252	1
0	8267	125.9254	1
0	8276	126.1256	1
0	8282	126.3258	1
0	8292	126.526	1
0	8349	127.527	1
0	8356	127.7272	1
0	8362	127.9274	1
0	8447	128.9284	1
0	8525	130.1296	1
0	8531	130.3298	1
0	8540	130.53	1
0	8546	130.7302	1
0	8559	130.9304	1
0	8684	132.7322	1
0	8705	132.9324	1
0	8708	133.1326	1
0	8711	133.3328	1
0	8717	133.533	1
0	8730	133.7332	1
0	8792	134.7342	1
0	8801	134.9344	1
0	8807	135.1346	1
0	8830	135.3348	1
0	8896	136.1356	1
0	8911	136.3358	1
0	8923	136.536	1
0	8936	136.7362	1
0	9035	138.1376	1
0	9047	138.3378	1
0	9062	138.538	1
0	9071	138.7382	1
0	9086	138.9384	1
0	9215	140.9404	1
0	9224	141.1406	1
0	9227	141.3408	1
0	9233	141.541	1
0	9245	141.7412	1
0	9260	141.9414	1
0	9360	142.9424	1
0	9375	143.1426	1
0	9381	143.3428	1
0	9387	143.543	1
0	9393	143.7432	1
0	9408	143.9434	1
0	9427	144.1436	1
0	9477	144.7442	1
0	9519	145.3448	1
0	9531	145.545	1
0	9585	146.546	1
0	9595	146.7462	1
0	9688	147.9474	1
0	9703	148.1476	1
0	9715	148.3478	1
0	9734	148.548	1
0	9840	150.1496	1
0	9846	150.3498	1
0	9852	150.55	1
0	9861	150.7502	1
0	9870	150.9504	1
0	9885	151.1506	1
0	9943	152.1516	1
0	9964	152.3518	1
0	9970	152.552	1
0	9980	152.7522	1
0	10046	153.7532	1
0	10055	153.9534	1
0	10062	154.1536	1
0	10071	154.3538	1
0	10138	155.555	1
0	10150	155.7552	1
0	10156	155.9554	1
0	10177	156.1556	1
0	10302	157.9574	1
0	10311	158.1576	1
0	10320	158.3578	1
0	10332	158.558	1
0	10335	158.7582	1
0	10347	158.9584	1
0	10423	159.9594	1
0	10432	160.1596	1
0	10438	160.3598	1
0	10441	160.56	1
0	10456	160.7602	1
0	10535	161.7612	1
0	10544	161.9614	1
0	10553	162.1616	1
0	10566	162.3618	1
0	10660	163.7632	1
0	10669	163.9634	1
0	10684	164.1636	1
0	10699	164.3638	1
0	10714	164.564	1
0	10731	164.7642	1
0	10798	165.565	1
0	10813	165.7652	1
0	10823	165.9654	1
0	10888	166.9664	1
0	10903	167.1666	1
0	10996	168.3678	1
0	11002	168.568	1
0	11014	168.7682	1
0	11027	168.9684	1
0	11126	170.57	1
0	11132	170.7702	1
0	11147	170.9704	1
0	11153	171.1706	1
0	11162	171.3708	1
0	11175	171.571	1
0	11229	172.3718	1
0	11238	172.572	1
0	11248	172.7722	1
0	11320	173.7732	1
0	11330	173.9734	1
0	11430	175.3748	1
0	11442	175.575	1
0	11448	175.7752	1
0	11455	175.9754	1
0	11461	176.1756	1
0	11585	177.9774	1
0	11594	178.1776	1
0	11597	178.3778	1
0	11600	178.578	1
0	11613	178.7782	1
0	11689	179.7792	1
0	11692	179.9794	1
0	11701	180.1796	1
0	11718	180.3798	1
0	11787	181.3808	1
0	11793	181.581	1
0	11806	181.7812	1
0	11898	183.1826	1
0	11913	183.3828	1
0	11919	183.583	1
0	11928	183.7832	1
0	11947	183.9834	1
0	12080	185.9854	1
0	12086	186.1856	1
0	12098	186.3858	1
0	12104	186.586	1
0	12110	186.7862	1
0	12127	186.9864	1
0	12199	187.9874	1
0	12205	188.1876	1
0	12214	188.3878	1
0	12217	188.588	1
0	12223	188.7882	1
0	12238	188.9884	1
0	12259	189.1886	1
0	12271	189.3888	1
0	12341	190.3898	1
0	12358	190.59	1
0	12405	191.3908	1
0	12411	191.591	1
0	12418	191.7912	1
0	12429	191.9914	1
0	12510	193.1926	1
0	12525	193.3928	1
0	12538	193.593	1
0	12652	195.1946	1
0	12664	195.3948	1
0	12667	195.595	1
0	12673	195.7952	1
0	12679	195.9954	1
0	12696	196.1956	1
0	12746	197.1966	1
0	12761	197.3968	1
0	12770	197.597	1
0	12780	197.7972	1
0	12848	198.7982	1
0	12854	198.9984	1
0	12866	199.1986	1
1	1	0	2
1	24	0.379787450457	2
1	52	0.781196986317	4
1	97	1.34739394705	6
1	155	2.097976509902	9
1	228	3.138115020326	14
1	338	4.677374241377	21
1	513	7.039555407298	30
1	767	10.177222329461	41
1	1075	14.458078956788	54
1	1511	20.13163094932	67
1	2021	27.048122469874	72
1	2630	35.6352	18
1	2810	38.6382	5
1	2910	40.44	2
1	2977	41.6412	2
1	3005	41.955020646481	3
1	3050	42.6422	5
1	3110	43.6432	7
1	3199	45.0446	11
1	3331	47.2468	16
1	3548	50.2498	8
1	3655	52.0516	8
1	3755	53.6532	12
1	3891	56.0556	18
1	4062	59.0586	9
1	4191	61.2608	3
1	4231	62.0616	3
1	4276	62.623786714201	4
1	4332	63.463	7
1	4429	64.8644	10
1	4570	66.8664	16
1	4759	69.6692	7
1	4885	71.471	8
1	4982	73.0726	12
1	5136	75.475	6
1	5203	76.6762	6
1	5274	77.8774	9
1	5382	79.6792	13
1	5563	82.0816	20
1	5768	85.2848	9
1	5901	87.487	3
1	5956	88.488	3
1	5994	89.0886	5
1	6047	90.0896	7
1	6130	91.491	11
1	6283	93.6932	17
1	6453	96.6962	8
1	6574	98.6982	2
1	6607	99.315975160281	2
1	6638	99.71089380707	4
1	6683	100.526363191412	6
1	6755	101.501	9
1	6869	103.3028	14
1	7044	105.9054	7
1	7151	107.507	7
1	7239	108.9084	10
1	7356	110.9104	16
1	7530	113.9134	7
1	7616	115.515	8
1	7718	117.1166	12
1	7879	119.519	6
1	7951	120.7202	6
1	8024	121.9214	9
1	8142	123.7232	13
1	8282	126.3258	6
1	8349	127.527	6
1	8432	128.7282	10
1	8546	130.7302	15
1	8717	133.533	7
1	8807	135.1346	7
1	8923	136.536	11
1	9071	138.7382	17
1	9245	141.7412	8
1	9393	143.7432	2
1	9419	144.104208016969	2
1	9460	144.544	4
1	9519	145.3448	6
1	9585	146.546	9
1	9715	148.3478	14
1	9870	150.9504	7
1	9970	152.552	7
1	10055	153.9534	10
1	10156	155.9554	16
1	10335	158.7582	7
1	10441	160.56	8
1	10553	162.1616	12
1	10714	164.564	6
1	10813	165.7652	6
1	10888	166.9664	9
1	11014	168.7682	13
1	11162	171.3708	6
1	11238	172.572	6
1	11320	173.7732	10
1	11448	175.7752	15
1	11600	178.578	7
1	11701	180.1796	7
1	11793	181.581	11
1	11928	183.7832	17
1	12110	186.7862	8
1	12223	188.7882	2
1	12254	189.12215305769	2
1	12288	189.594448176897	4
1	12341	190.3898	6
1	12411	191.591	9
1	12525	193.3928	14
1	12679	195.9954	7
1	12770	197.597	7
1	12854	198.9984	11
2	2	0	1
2	25	0.379787450457	1
2	53	0.781196986317	1
2	98	1.34739394705	1
2	156	2.097976509902	1
2	229	3.138115020326	1
2	339	4.677374241377	1
2	514	7.039555407298	1
2	768	10.177222329461	1
2	1076	14.458078956788	1
2	1512	20.13163094932	1
2	2022	27.048122469874	1
2	2631	35.6352	1
2	2811	38.6382	1
2	2911	40.44	1
2	2978	41.6412	1
2	3006	41.955020646481	1
2	3051	42.6422	1
2	3111	43.6432	1
2	3200	45.0446	1
2	3332	47.2468	1
2	3549	50.2498	1
2	3656	52.0516	1
2	3756	53.6532	1
2	3892	56.0556	1
2	4063	59.0586	1
2	4192	61.2608	1
2	4232	62.0616	1
2	4277	62.623786714201	1
2	4333	63.463	1
2	4430	64.8644	1
2	4571	66.8664	1
2	4760	69.6692	1
2	4886	71.471	1
2	4983	73.0726	1
2	5137	75.475	1
2	5204	76.6762	1
2	5275	77.8774	1
2	5383	79.6792	1
2	5564	82.0816	1
2	5769	85.2848	1
2	5902	87.487	1
2	5957	88.488	1
2	5995	89.0886	1
2	6048	90.0896	1
2	6131	91.491	1
2	6284	93.6932	1
2	6454	96.6962	1
2	6575	98.6982	1
2	6608	99.315975160281	1
2	6639	99.71089380707	1
2	6684	100.526363191412	1
2	6756	101.501	1
2	6870	103.3028	1
2	7045	105.9054	1
2	7152	107.507	1
2	7240	108.9084	1
2	7357	110.9104	1
2	7531	113.9134	1
2	7617	115.515	1
2	7719	117.1166	1
2	7880	119.519	1
2	7952	120.7202	1
2	8025	121.9214	1
2	8143	123.7232	1
2	8283	126.3258	1
2	8350	127.527	1
2	8433	128.7282	1
2	8547	130.7302	1
2	8718	133.533	1
2	8808	135.1346	1
2	8924	136.536	1
2	9072	138.7382	1
2	9246	141.7412	1
2	9394	143.7432	1
2	9420	144.104208016969	1
2	9461	144.544	1
2	9520	145.3448	1
2	9586	146.546	1
2	9716	148.3478	1
2	9871	150.9504	1
2	9971	152.552	1
2	10056	153.9534	1
2	10157	155.9554	1
2	10336	158.7582	1
2	10442	160.56	1
2	10554	162.1616	1
2	10715	164.564	1
2	10814	165.7652	1
2	10889	166.9664	1
2	11015	168.7682	1
2	11163	171.3708	1
2	11239	172.572	1
2	11321	173.7732	1
2	11449	175.7752	1
2	11601	178.578	1
2	11702	180.1796	1
2	11794	181.581	1
2	11929	183.7832	1
2	12111	186.7862	1
2	12224	188.7882	1
2	12255	189.12215305769	1
2	12289	189.594448176897	1
2	12342	190.3898	1
2	12412	191.591	1
2	12526	193.3928	1
2	12680	195.9954	1
2	12771	197.597	1
2	12855	198.9984	1
3	6	0.079587450457	1
3	9	0.169443489305	1
3	20	0.29503656511	1
3	32	0.480996986317	1
3	35	0.573319299464	1
3	48	0.768473833052	1
3	58	0.84719394705	1
3	67	1.03509035247	1
3	75	1.090195201137	1
3	81	1.187895843776	1
3	90	1.291711773842	1
3	93	1.340224590214	1
3	102	1.397776509902	1
3	106	1.433092423816	1
3	118	1.65544486602	1
3	120	1.661283332929	1
3	139	1.992774560922	1
3	146	2.024610175006	1
3	149	2.072970385501	1
3	160	2.137915020326	1
3	169	2.294804632088	1
3	180	2.46202575212	1
3	184	2.537293163451	1
3	191	2.602681420173	1
3	199	2.686624705463	1
3	201	2.736511906365	1
3	218	2.99633731495	1
3	233	3.177174241377	1
3	236	3.184542776924	1
3	239	3.225700576548	1
3	241	3.23481667916	1
3	248	3.339277929991	1
3	250	3.341320488831	1
3	256	3.387245302557	1
3	265	3.565994068901	1
3	287	3.881011061769	1
3	296	4.031589487633	1
3	298	4.046712572999	1
3	311	4.250743998793	1
3	324	4.454833220384	1
3	346	4.839355407298	1
3	351	4.903526324566	1
3	361	5.064050280272	1
3	370	5.225450487761	1
3	378	5.287343433724	1
3	384	5.360839875843	1
3	393	5.512493473242	1
3	400	5.626087367413	1
3	402	5.638674808357	1
3	414	5.766197578579	1
3	421	5.868340766014	1
3	429	5.955572885518	1
3	431	5.971045853568	1
3	438	6.048129319415	1
3	453	6.337571367214	1
3	464	6.479707835223	1
3	472	6.553490564399	1
3	474	6.564685180462	1
3	477	6.618241752485	1
3	485	6.682411222688	1
3	487	6.713139257903	1
3	489	6.733759586106	1
3	502	6.882585068681	1
3	509	7.016114087143	1
3	518	7.077022329461	1
3	523	7.101427178535	1
3	528	7.185460649096	1
3	530	7.199988451825	1
3	532	7.201885308745	1
3	535	7.241062389813	1
3	543	7.33720048372	1
3	545	7.353414132665	1
3	552	7.448113800382	1
3	554	7.473257993589	1
3	562	7.569212791326	1
3	569	7.618068496257	1
3	588	7.905859998385	1
3	601	8.138751335806	1
3	608	8.253265231276	1
3	616	8.313039838958	1
3	618	8.357591688463	1
3	625	8.452541146813	1
3	633	8.509994387487	1
3	646	8.742629493656	1
3	653	8.862240273602	1
3	655	8.87269639618	1
3	661	8.878907925227	1
3	681	9.228929293672	1
3	689	9.338820540427	1
3	696	9.444703953576	1
3	704	9.555763698145	1
3	706	9.574506304747	1
3	712	9.598126975355	1
3	715	9.642467378217	1
3	717	9.65627024706	1
3	729	9.795174516039	1
3	732	9.833070712467	1
3	740	9.926676868444	1
3	742	9.971887074466	1
3	749	10.011198330196	1
3	757	10.095641109549	1
3	760	10.09955942519	1
3	763	10.157291856271	1
3	773	10.257878956788	1
3	799	10.703328641406	1
3	817	11.022623305611	1
3	819	11.033386816427	1
3	827	11.139169457762	1
3	833	11.16259960964	1
3	840	11.263401534182	1
3	842	11.280992888725	1
3	873	11.817002923749	1
3	881	11.922877195258	1
3	887	12.010068780621	1
3	890	12.039276833948	1
3	898	12.092783301656	1
3	900	12.155577459755	1
3	907	12.219955559915	1
3	909	12.247983260763	1
3	917	12.34566966817	1
3	923	12.362982413785	1
3	925	12.404232536777	1
3	928	12.415928077756	1
3	936	12.528244907909	1
3	943	12.635052127624	1
3	949	12.673207711961	1
3	953	12.688078938886	1
3	960	12.838742472213	1
3	966	12.860630531864	1
3	985	13.159349521049	1
3	987	13.205350916823	1
3	996	13.313977854911	1
3	1009	13.486011020683	1
3	1011	13.487377478526	1
3	1013	13.497591966678	1
3	1019	13.595102160094	1
3	1032	13.777084052022	1
3	1041	13.889065488597	1
3	1043	13.899168966128	1
3	1061	14.256527803362	1
3	1083	14.63143094932	1
3	1096	14.841963079399	1
3	1100	14.905196739039	1
3	1106	14.976455098372	1
3	1130	15.352647826822	1
3	1132	15.358380519464	1
3	1139	15.451228369154	1
3	1143	15.511223057818	1
3	1154	15.645647585033	1
3	1156	15.647666597848	1
3	1158	15.651664227754	1
3	1162	15.709952066641	1
3	1168	15.743193090737	1
3	1192	16.132350103022	1
3	1194	16.145155779553	1
3	1196	16.189697725745	1
3	1199	16.224815334683	1
3	1207	16.290379963119	1
3	1209	16.303018826762	1
3	1216	16.419706179417	1
3	1222	16.457976274303	1
3	1235	16.670399994003	1
3	1239	16.723888431579	1
3	1256	16.974279609888	1
3	1258	16.980909350036	1
3	1260	17.005348894844	1
3	1269	17.123267847551	1
3	1275	17.206552199158	1
3	1284	17.290161952355	1
3	1297	17.490486004606	1
3	1299	17.521327488616	1
3	1305	17.592452282338	1
3	1312	17.666528177383	1
3	1327	17.915086413081	1
3	1329	17.924951443923	1
3	1346	18.178981894719	1
3	1353	18.264771458826	1
3	1355	18.27344850706	1
3	1374	18.538374099928	1
3	1376	18.570908141481	1
3	1378	18.609264162891	1
3	1380	18.610204237957	1
3	1389	18.720288828966	1
3	1402	18.905021594066	1
3	1404	18.919154665422	1
3	1411	19.02333273084	1
3	1423	19.149326111851	1
3	1436	19.333454359	1
3	1438	19.367619775703	1
3	1440	19.398371548079	1
3	1442	19.418606591936	1
3	1449	19.469326604262	1
3	1457	19.557639508458	1
3	1464	19.638119248438	1
3	1466	19.640150494318	1
3	1468	19.658175719516	1
3	1481	19.834749826757	1
3	1483	19.880922916361	1
3	1487	19.88139357041	1
3	1489	19.897227721033	1
3	1495	20.01049113523	1
3	1504	20.094799438445	1
3	1507	20.12627160453	1
3	1517	20.247922469874	1
3	1525	20.380798257249	1
3	1527	20.414832931073	1
3	1547	20.742347248844	1
3	1553	20.799137664192	1
3	1556	20.827739761443	1
3	1568	20.968842202372	1
3	1575	21.054681499155	1
3	1579	21.105115879814	1
3	1585	21.194774966893	1
3	1599	21.421148324479	1
3	1607	21.506070405635	1
3	1613	21.607936278637	1
3	1616	21.633178277926	1
3	1633	21.855328967773	1
3	1652	22.160557133461	1
3	1659	22.274517929814	1
3	1663	22.333780332559	1
3	1669	22.393418271992	1
3	1682	22.580764259978	1
3	1706	22.965064918302	1
3	1715	23.085288775027	1
3	1717	23.097641439763	1
3	1719	23.13294345309	1
3	1730	23.278625308946	1
3	1739	23.446717529401	1
3	1747	23.499789779063	1
3	1753	23.550291653838	1
3	1760	23.662819855522	1
3	1773	23.875769795129	1
3	1777	23.904510842736	1
3	1783	23.991564425369	1
3	1786	24.02913830961	1
3	1799	24.242621354608	1
3	1822	24.579058399913	1
3	1831	24.696996693277	1
3	1837	24.785782834321	1
3	1846	24.914973761201	1
3	1852	25.022757249615	1
3	1861	25.092337195705	1
3	1867	25.168523972835	1
3	1885	25.481070808601	1
3	1889	25.507276532769	1
3	1895	25.610556233834	1
3	1902	25.66078731366	1
3	1906	25.715926912673	1
3	1912	25.812372269222	1
3	1921	25.905612557263	1
3	1927	25.970023028095	1
3	1929	25.97196100623	1
3	1932	26.035473777793	1
3	1938	26.07136649938	1
3	1946	26.197270851106	1
3	1955	26.305202870972	1
3	1957	26.33916934423	1
3	1963	26.3734293067	1
3	1965	26.421792875359	1
3	1974	26.518030380936	1
3	1985	26.65632830159	1
3	1989	26.712324408597	1
3	2002	26.923069169092	1
3	2004	26.937626566937	1
3	2010	26.948481276786	1
3	2013	26.983903690011	1
3	2016	26.993595965469	1
3	2026	27.077984812728	1
3	2031	27.121687614105	1
3	2036	27.211060521936	1
3	2045	27.291315720512	1
3	2047	27.376723694076	1
3	2053	27.380144035912	1
3	2062	27.48604497445	1
3	2080	27.833298522378	1
3	2088	27.938883483244	1
3	2090	27.977596492459	1
3	2097	28.034057542571	1
3	2099	28.059065692069	1
3	2118	28.285929091338	1
3	2120	28.301158453863	1
3	2122	28.346975742259	1
3	2124	28.357207803744	1
3	2130	28.414453958887	1
3	2154	28.828234934938	1
3	2168	29.050726400661	1
3	2174	29.080882991983	1
3	2183	29.244972749776	1
3	2191	29.321980435731	1
3	2198	29.443682385265	1
3	2206	29.503089735097	1
3	2208	29.51365099946	1
3	2210	29.52413918302	1
3	2223	29.776067396028	1
3	2229	29.819501961622	1
3	2238	29.944762714113	1
3	2244	30.008108975885	1
3	2286	30.684648027879	1
3	2293	30.868621306387	1
3	2301	30.884808315058	1
3	2314	31.119826044033	1
3	2327	31.322416925743	1
3	2329	31.326245217031	1
3	2331	31.343977774546	1
3	2337	31.414969567268	1
3	2346	31.51056620966	1
3	2348	31.528820069848	1
3	2350	31.542038440809	1
3	2363	31.69302078637	1
3	2376	31.881413675029	1
3	2389	32.081612324582	1
3	2396	32.246284234715	1
3	2404	32.299284522529	1
3	2410	32.383472618702	1
3	2412	32.398551719721	1
3	2415	32.45083872273	1
3	2417	32.454217401285	1
3	2419	32.461384939716	1
3	2443	32.866369623596	1
3	2455	32.985913480224	1
3	2458	33.032640736865	1
3	2466	33.09307064405	1
3	2468	33.147556356864	1
3	2475	33.275589777245	1
3	2481	33.280781032463	1
3	2496	33.482058306084	1
3	2498	33.527549490563	1
3	2522	33.898545549753	1
3	2524	33.900222326352	1
3	2537	34.093880050101	1
3	2539	34.120112981018	1
3	2541	34.12129130421	1
3	2548	34.266070712409	1
3	2556	34.310695994461	1
3	2564	34.599157169671	1
3	2570	34.730087006073	1
3	2574	34.868716141275	1
3	2579	34.887545638797	1
3	2582	34.929006893063	1
3	2585	35.002620003062	1
3	2589	35.069866054745	1
3	2592	35.075453060034	1
3	2597	35.116850952301	1
3	2600	35.139164873111	1
3	2603	35.158947823857	1
3	2606	35.160817370899	1
3	2609	35.179569266019	1
3	2615	35.33741053823	1
3	2618	35.399670272628	1
3	2621	35.425020843142	1
3	2627	35.632623949186	1
3	2635	35.674989659322	1
3	2650	35.963444088163	1
3	2667	36.226665974418	1
3	2676	36.32037984619	1
3	2683	36.442259526524	1
3	2691	36.533055929256	1
3	2693	36.536291609721	1
3	2706	36.689374732348	1
3	2708	36.707370466503	1
3	2714	36.776690443457	1
3	2717	36.873838659266	1
3	2723	36.879006949846	1
3	2727	36.965099313514	1
3	2740	37.085196404168	1
3	2742	37.112363211202	1
3	2768	37.600276500001	1
3	2775	37.872411325592	1
3	2780	37.903508106089	1
3	2783	37.998691076843	1
3	2789	38.112350726369	1
3	2792	38.189058691826	1
3	2798	38.388775888575	1
3	2802	38.477913746266	1
3	2807	38.616881452644	1
3	2817	38.74785998978	1
3	2837	39.081653423165	1
3	2839	39.119042072755	1
3	2845	39.199840078095	1
3	2852	39.250626590364	1
3	2855	39.274501877649	1
3	2860	39.298054334991	1
3	2863	39.323214196302	1
3	2866	39.34381740115	1
3	2871	39.36850332803	1
3	2878	39.65741088722	1
3	2883	39.741708764761	1
3	2887	39.876243508084	1
3	2892	39.936411406736	1
3	2895	40.0038358637	1
3	2904	40.355283731754	1
3	2907	40.381085008148	1
3	2917	40.495198798434	1
3	2920	40.524549563626	1
3	2922	40.533464992626	1
3	2924	40.539443088918	1
3	2926	40.54525032513	1
3	2931	40.602240081661	1
3	2934	40.66915145403	1
3	2942	40.706518433469	1
3	2950	40.919385442922	1
3	2953	41.038571253287	1
3	2962	41.41324071467	1
3	2966	41.460682343703	1
3	2971	41.55682630086	1
3	2974	41.576623074393	1
3	2982	41.654820646481	1
3	2985	41.657319481812	1
3	2993	41.8501554955	1
3	2999	41.857117262607	1
3	3010	41.993310435038	1
3	3019	42.107064285592	1
3	3021	42.172187358784	1
3	3027	42.232645480618	1
3	3036	42.345681035209	1
3	3041	42.422593015319	1
3	3047	42.51599904858	1
3	3057	42.742983050158	1
3	3064	42.868403377167	1
3	3090	43.332368629804	1
3	3095	43.395761631743	1
3	3098	43.420210733947	1
3	3102	43.481094025321	1
3	3107	43.589884468682	1
3	3117	43.826776285766	1
3	3121	43.857336775947	1
3	3123	43.872096379236	1
3	3125	43.874183101097	1
3	3129	43.900218242252	1
3	3138	44.042256587811	1
3	3152	44.255612916558	1
3	3156	44.294181685963	1
3	3173	44.528966062106	1
3	3176	44.577329900855	1
3	3182	44.681114908404	1
3	3187	44.769865101252	1
3	3190	44.809122404071	1
3	3196	44.986936737754	1
3	3204	45.060273505071	1
3	3209	45.159423934361	1
3	3211	45.159429469551	1
3	3227	45.365511593639	1
3	3229	45.402887923021	1
3	3231	45.434845388508	1
3	3240	45.490262471413	1
3	3247	45.650234415597	1
3	3264	45.866810783684	1
3	3268	45.887345560558	1
3	3274	46.001251325625	1
3	3292	46.306569792584	1
3	3295	46.367474253855	1
3	3301	46.483785582198	1
3	3304	46.549835890173	1
3	3307	46.57410773954	1
3	3313	46.729574033321	1
3	3319	47.024022061063	1
3	3323	47.050086074001	1
3	3328	47.181336873298	1
3	3338	47.393611538692	1
3	3341	47.422906684541	1
3	3344	47.460549619693	1
3	3348	47.484541971637	1
3	3368	47.800251525779	1
3	3371	47.873274292303	1
3	3379	47.937093152862	1
3	3381	47.939692927381	1
3	3388	48.064028005176	1
3	3392	48.087280507014	1
3	3398	48.103967971137	1
3	3400	48.159251808202	1
3	3409	48.290349045018	1
3	3415	48.337216692616	1
3	3421	48.441137256274	1
3	3430	48.50342018725	1
3	3432	48.527612151727	1
3	3434	48.560133753525	1
3	3436	48.580769552885	1
3	3443	48.669148118488	1
3	3455	48.833955735804	1
3	3468	49.033359655932	1
3	3476	49.170827651312	1
3	3479	49.183330910304	1
3	3485	49.295676960259	1
3	3488	49.368529344532	1
3	3491	49.400949255881	1
3	3494	49.415113459361	1
3	3497	49.434339603445	1
3	3503	49.560520870794	1
3	3509	49.682420805312	1
3	3512	49.732848798637	1
3	3515	49.795052490545	1
3	3519	49.87839031461	1
3	3525	50.061916654904	1
3	3530	50.082162531274	1
3	3533	50.105086963795	1
3	3536	50.120734540833	1
3	3539	50.138761970791	1
3	3542	50.205716029877	1
3	3545	50.219050092204	1
3	3553	50.262995631253	1
3	3561	50.391038066651	1
3	3579	50.673101661493	1
3	3581	50.676194290649	1
3	3589	50.821149768292	1
3	3598	50.958584069734	1
3	3611	51.096680379301	1
3	3614	51.106397147138	1
3	3622	51.340446343204	1
3	3625	51.364966152468	1
3	3628	51.373677010794	1
3	3634	51.512008657409	1
3	3637	51.592347833676	1
3	3643	51.723910459506	1
3	3646	51.811731967378	1
3	3649	51.816400741742	1
3	3662	52.143250381824	1
3	3665	52.16671596675	1
3	3667	52.201267925121	1
3	3669	52.235083396605	1
3	3675	52.262636190309	1
3	3683	52.375728038228	1
3	3685	52.386296755638	1
3	3687	52.392808042117	1
3	3689	52.394464651559	1
3	3696	52.475578753782	1
3	3711	52.740834605334	1
3	3713	52.741762907772	1
3	3724	52.852603883193	1
3	3732	53.031602843641	1
3	3740	53.185385715089	1
3	3749	53.600982824645	1
3	3752	53.634073812763	1
3	3762	53.755642860099	1
3	3765	53.843930914595	1
3	3771	53.863975134104	1
3	3773	53.870584335173	1
3	3777	53.942408983184	1
3	3783	54.008889758139	1
3	3792	54.095746331286	1
3	3814	54.475148709595	1
3	3822	54.630049877511	1
3	3835	54.839205534773	1
3	3844	54.9324667203	1
3	3850	54.973739706973	1
3	3853	54.998381289194	1
3	3864	55.324273386912	1
3	3867	55.385001315774	1
3	3870	55.411359027058	1
3	3876	55.622447904496	1
3	3885	55.920667972043	1
3	3888	55.988448172249	1
3	3899	56.272112191587	1
3	3907	56.397835891144	1
3	3916	56.558381767451	1
3	3922	56.624966016115	1
3	3931	56.724512380452	1
3	3937	56.847800426755	1
3	3950	57.055176573065	1
3	3959	57.12412002685	1
3	3961	57.158795357229	1
3	3974	57.344938521527	1
3	3987	57.533948691337	1
3	3989	57.555558312996	1
3	3995	57.651759505655	1
3	4008	57.80018375392	1
3	4010	57.801516278403	1
3	4030	58.167482011479	1
3	4035	58.210135592683	1
3	4041	58.408410483143	1
3	4044	58.424443892592	1
3	4050	58.576050785575	1
3	4059	58.976845751062	1
3	4072	59.397031693687	1
3	4076	59.462111427923	1
3	4087	59.602178997619	1
3	4090	59.670973345465	1
3	4092	59.671378977597	1
3	4100	59.773397686392	1
3	4106	59.804797476198	1
3	4108	59.850776607976	1
3	4117	59.903623330806	1
3	4119	59.918345834537	1
3	4121	59.974246601536	1
3	4134	60.14690993951	1
3	4136	60.182269597036	1
3	4142	60.203322925856	1
3	4144	60.254594390119	1
3	4153	60.326198921918	1
3	4156	60.339056945646	1
3	4159	60.364458083481	1
3	4170	60.759221410237	1
3	4173	60.769518246609	1
3	4176	60.821626128717	1
3	4182	61.019815162828	1
3	4188	61.104028793112	1
3	4199	61.46492289361	1
3	4204	61.507022223415	1
3	4220	61.831018520105	1
3	4228	61.98654795614	1
3	4238	62.223586714201	1
3	4242	62.276582872128	1
3	4253	62.425325847562	1
3	4256	62.469840781503	1
3	4260	62.510359069737	1
3	4266	62.561358153122	1
3	4269	62.569816102298	1
3	4272	62.605745492811	1
3	4281	62.658042258177	1
3	4290	62.807305474596	1
3	4292	62.83373252101	1
3	4312	63.094389701242	1
3	4315	63.108602252381	1
3	4318	63.147952493493	1
3	4321	63.153443230748	1
3	4329	63.458929208649	1
3	4339	63.588243994529	1
3	4342	63.589648653653	1
3	4344	63.590797978674	1
3	4347	63.667040347095	1
3	4358	63.814260762894	1
3	4360	63.850584984784	1
3	4363	63.86647830275	1
3	4376	64.080916849201	1
3	4384	64.089203076493	1
3	4386	64.118054347528	1
3	4388	64.127441802256	1
3	4394	64.240579679016	1
3	4403	64.352068421207	1
3	4411	64.518364999274	1
3	4414	64.546517401521	1
3	4417	64.603106855684	1
3	4420	64.657672627161	1
3	4426	64.797159536287	1
3	4434	64.878661369377	1
3	4442	65.055623351698	1
3	4455	65.252629108257	1
3	4464	65.300276966517	1
3	4470	65.430121530077	1
3	4472	65.440274938471	1
3	4475	65.471790941343	1
3	4483	65.501381128668	1
3	4485	65.51547791711	1
3	4491	65.605110837612	1
3	4493	65.610807490859	1
3	4496	65.675524961263	1
3	4504	65.711421093101	1
3	4506	65.7783513803	1
3	4512	65.808748536223	1
3	4515	65.870092445182	1
3	4523	65.930998890714	1
3	4528	66.005357209892	1
3	4534	66.120331348667	1
3	4537	66.178673725771	1
3	4543	66.297623350904	1
3	4549	66.489107576668	1
3	4552	66.522447910506	1
3	4555	66.57926495888	1
3	4558	66.627056757631	1
3	4564	66.802428222133	1
3	4567	66.822413775925	1
3	4577	66.893614582487	1
3	4583	67.04898913269	1
3	4585	67.058022857098	1
3	4587	67.063875646993	1
3	4596	67.171768337843	1
3	4605	67.291169674903	1
3	4611	67.314311772099	1
3	4617	67.465133295262	1
3	4630	67.653045138683	1
3	4643	67.803286418054	1
3	4652	67.917655480113	1
3	4654	67.947687988142	1
3	4656	67.967334176732	1
3	4662	68.014144822055	1
3	4664	68.021386733066	1
3	4673	68.109962797669	1
3	4675	68.110936338603	1
3	4677	68.142794723391	1
3	4690	68.365403122335	1
3	4696	68.411742125089	1
3	4698	68.426067427227	1
3	4700	68.448014243316	1
3	4711	68.599060403438	1
3	4714	68.660652331816	1
3	4723	68.919897192694	1
3	4726	68.924460997644	1
3	4729	69.050050346078	1
3	4735	69.210892130987	1
3	4739	69.278387228352	1
3	4744	69.286395113946	1
3	4747	69.349788326595	1
3	4750	69.422942860508	1
3	4756	69.637252830551	1
3	4764	69.673897959734	1
3	4769	69.740921147392	1
3	4774	69.827087896572	1
3	4781	69.880628331681	1
3	4800	70.201109214642	1
3	4802	70.220238819232	1
3	4811	70.323963328642	1
3	4817	70.388454177759	1
3	4820	70.392054460734	1
3	4828	70.545139302628	1
3	4831	70.60142182281	1
3	4837	70.682711658929	1
3	4840	70.754050087209	1
3	4843	70.771469603246	1
3	4846	70.848294937433	1
3	4849	70.863823495983	1
3	4855	70.978203033895	1
3	4861	71.083031944391	1
3	4864	71.11554903144	1
3	4867	71.19303326939	1
3	4870	71.206828592583	1
3	4873	71.246234349778	1
3	4879	71.296103583065	1
3	4882	71.312004784745	1
3	4892	71.6252877337	1
3	4895	71.642707605358	1
3	4897	71.663426123583	1
3	4900	71.677284805725	1