version 3
run FeedbackVersion-5-20240511-20:45:11-11876
attr configname FeedbackVersion
attr datetime 20240511-20:45:11
attr datetimef 20240511-204511
attr experiment FeedbackVersion
attr inifile omnetpp.ini
attr iterationvars $genInterval=0.35
attr iterationvarsd genInterval=0.35
attr iterationvarsf genInterval=0.35-
attr measurement $genInterval=0.35
attr network NetworkFV
attr processid 11876
attr repetition 0
attr replication #0
attr resultdir results
attr runnumber 5
attr seedset 5
itervar genInterval 0.35
config network NetworkFV
config sim-time-limit 200s
config NetworkFV.nodeTx.gen.generationInterval exponential(0.35)
config NetworkFV.nodeTx.gen.packetByteSize 12500
config NetworkFV.queueOne.bufferSize 200
config NetworkFV.nodeRx.queue.bufferSize 200
config NetworkFV.nodeTx.queue.bufferSize 2000000
config NetworkFV.queueZero.bufferSize 200

vector 0 NetworkFV.nodeRx.queue PacketsLost ETV
vector 1 NetworkFV.nodeRx.queue PacketsAsked ETV
vector 2 NetworkFV.queueOne bufferSize ETV
vector 3 NetworkFV.nodeTx.gen packetGen ETV
vector 4 NetworkFV.nodeTx.queue BufferSize ETV
vector 5 NetworkFV.nodeTx.queue PacketsSent ETV
vector 6 NetworkFV.queueZero bufferSize ETV
vector 7 NetworkFV.nodeRx.queue BufferSize ETV
vector 8 NetworkFV.nodeRx.sink Delay ETV
vector 9 NetworkFV.nodeRx.sink packetUsed ETV
0	1	0	1
0	14	0.2	1
0	26	0.4	1
0	29	0.6002	1
0	32	0.8004	1
0	39	1.0006	1
0	46	1.401	1
0	55	1.6012	1
0	73	1.8014	1
0	86	2.2018	1
0	87	2.402	1
0	91	2.6022	1
0	112	3.2028	1
0	113	3.403	1
0	114	3.6032	1
0	115	3.8034	1
0	119	4.0036	1
0	176	5.2048	1
0	186	5.405	1
0	204	5.8054	1
0	237	6.406	1
0	240	6.6062	1
0	241	6.8064	1
0	242	7.0066	1
0	243	7.2068	1
0	244	7.407	1
0	249	7.6072	1
0	258	7.8074	1
0	269	8.2078	1
0	280	8.408	1
0	297	8.8084	1
0	311	9.2088	1
0	327	9.6092	1
0	331	9.8094	1
0	371	10.6102	1
0	387	11.0106	1
0	388	11.2108	1
0	394	11.411	1
0	449	12.412	1
0	452	12.6122	1
0	461	12.8124	1
0	491	13.413	1
0	529	14.2138	1
0	542	14.6142	1
0	630	16.2158	1
0	638	16.416	1
0	655	17.0166	1
0	659	17.2168	1
0	678	17.8174	1
0	679	18.0176	1
0	684	18.2178	1
0	688	18.418	1
0	698	18.8184	1
0	699	19.0186	1
0	700	19.2188	1
0	701	19.419	1
0	712	19.6192	1
0	723	19.8194	1
0	739	20.2198	1
0	740	20.42	1
0	741	20.6202	1
0	742	20.8204	1
0	748	21.0206	1
0	771	21.6212	1
0	772	21.8214	1
0	773	22.0216	1
0	774	22.2218	1
0	775	22.422	1
0	776	22.6222	1
0	781	22.8224	1
0	787	23.0226	1
0	801	23.2228	1
0	819	23.6232	1
0	826	23.8234	1
0	847	24.2238	1
0	870	24.8244	1
0	886	25.2248	1
0	893	25.425	1
0	963	26.8264	1
0	991	27.6272	1
0	998	27.8274	1
0	1017	28.428	1
0	1018	28.6282	1
0	1019	28.8284	1
0	1030	29.0286	1
0	1037	29.429	1
0	1038	29.6292	1
0	1039	29.8294	1
0	1040	30.0296	1
0	1041	30.2298	1
0	1051	30.43	1
0	1065	30.6302	1
0	1068	30.8304	1
0	1072	31.0306	1
0	1086	31.431	1
0	1093	31.6312	1
0	1114	32.0316	1
0	1126	32.432	1
0	1132	32.6322	1
0	1148	33.0326	1
0	1149	33.2328	1
0	1150	33.433	1
0	1154	33.6332	1
0	1230	35.2348	1
0	1231	35.435	1
0	1232	35.6352	1
0	1233	35.8354	1
0	1234	36.0356	1
0	1238	36.2358	1
0	1282	37.0366	1
0	1294	37.2368	1
0	1316	37.6372	1
0	1337	38.2378	1
0	1343	38.438	1
0	1379	39.2388	1
0	1380	39.439	1
0	1381	39.6392	1
0	1392	39.8394	1
0	1448	40.8404	1
0	1451	41.0406	1
0	1454	41.2408	1
0	1460	41.441	1
0	1493	42.0416	1
0	1505	42.442	1
0	1518	42.6422	1
0	1525	43.0426	1
0	1526	43.2428	1
0	1527	43.443	1
0	1534	43.6432	1
0	1567	44.444	1
0	1596	45.0446	1
0	1606	45.2448	1
0	1622	45.6452	1
0	1625	45.8454	1
0	1626	46.0456	1
0	1632	46.2458	1
0	1649	46.8464	1
0	1650	47.0466	1
0	1661	47.2468	1
0	1669	47.447	1
0	1678	47.6472	1
0	1689	48.0476	1
0	1693	48.2478	1
0	1703	48.6482	1
0	1704	48.8484	1
0	1705	49.0486	1
0	1714	49.2488	1
0	1726	49.449	1
0	1735	49.6492	1
0	1746	49.8494	1
0	1757	50.0496	1
0	1834	51.2508	1
0	1856	51.8514	1
0	1876	52.452	1
0	1885	52.6522	1
0	1902	53.0526	1
0	1942	53.8534	1
0	1991	54.8544	1
0	1994	55.0546	1
0	1995	55.2548	1
0	1996	55.455	1
0	2003	55.6552	1
0	2042	56.6562	1
0	2047	56.8564	1
0	2054	57.0566	1
0	2061	57.457	1
0	2062	57.6572	1
0	2063	57.8574	1
0	2070	58.0576	1
0	2081	58.458	1
0	2082	58.6582	1
0	2083	58.8584	1
0	2090	59.0586	1
0	2101	59.459	1
0	2102	59.6592	1
0	2103	59.8594	1
0	2114	60.0596	1
0	2129	60.46	1
0	2138	60.6602	1
0	2149	61.0606	1
0	2155	61.2608	1
0	2169	61.6612	1
0	2170	61.8614	1
0	2171	62.0616	1
0	2172	62.2618	1
0	2173	62.462	1
0	2174	62.6622	1
0	2179	62.8624	1
0	2183	63.0626	1
0	2217	63.6632	1
0	2243	64.2638	1
0	2288	65.2648	1
0	2291	65.465	1
0	2292	65.6652	1
0	2298	65.8654	1
0	2332	66.466	1
0	2335	66.6662	1
0	2339	66.8664	1
0	2404	68.0676	1
0	2407	68.2678	1
0	2413	68.468	1
0	2437	69.0686	1
0	2480	70.0696	1
0	2481	70.2698	1
0	2486	70.47	1
0	2487	70.6702	1
0	2491	70.8704	1
0	2501	71.2708	1
0	2505	71.471	1
0	2588	73.0726	1
0	2591	73.2728	1
0	2592	73.473	1
0	2593	73.6732	1
0	2594	73.8734	1
0	2601	74.0736	1
0	2615	74.474	1
0	2625	74.8744	1
0	2629	75.0746	1
0	2651	75.475	1
0	2665	75.8754	1
0	2683	76.2758	1
0	2684	76.476	1
0	2685	76.6762	1
0	2686	76.8764	1
0	2687	77.0766	1
0	2688	77.2768	1
0	2693	77.477	1
0	2700	77.6772	1
0	2715	77.8774	1
0	2721	78.0776	1
0	2765	78.8784	1
0	2814	79.8794	1
0	2815	80.0796	1
0	2819	80.2798	1
0	2829	80.6802	1
0	2833	80.8804	1
0	2847	81.2808	1
0	2848	81.481	1
0	2849	81.6812	1
0	2853	81.8814	1
0	2863	82.2818	1
0	2867	82.482	1
0	2901	83.2828	1
0	2902	83.483	1
0	2909	83.6832	1
0	2920	84.0836	1
0	2924	84.2838	1
0	2970	85.0846	1
0	2989	85.6852	1
0	2990	85.8854	1
0	2991	86.0856	1
0	2998	86.2858	1
0	3011	86.6862	1
0	3025	87.0866	1
0	3035	87.487	1
0	3036	87.6872	1
0	3045	87.8874	1
0	3060	88.2878	1
0	3063	88.488	1
0	3064	88.6882	1
0	3065	88.8884	1
0	3071	89.0886	1
0	3098	89.6892	1
0	3117	90.2898	1
0	3124	90.49	1
0	3131	90.8904	1
0	3132	91.0906	1
0	3133	91.2908	1
0	3138	91.491	1
0	3139	91.6912	1
0	3143	91.8914	1
0	3156	92.2918	1
0	3170	92.6922	1
0	3171	92.8924	1
0	3175	93.0926	1
0	3185	93.493	1
0	3195	93.6932	1
0	3206	94.0936	1
0	3213	94.2938	1
0	3239	94.8944	1
0	3242	95.0946	1
0	3243	95.2948	1
0	3244	95.495	1
0	3245	95.6952	1
0	3255	95.8954	1
0	3275	96.0956	1
0	3351	97.497	1
0	3360	97.6972	1
0	3386	98.2978	1
0	3400	98.6982	1
0	3456	99.8994	1
0	3462	100.0996	1
0	3475	100.5	1
0	3525	101.3008	1
0	3542	101.7012	1
0	3570	102.3018	1
0	3616	103.1026	1
0	3622	103.3028	1
0	3633	103.7032	1
0	3637	103.9034	1
0	3647	104.3038	1
0	3648	104.504	1
0	3653	104.7042	1
0	3660	104.9044	1
0	3670	105.3048	1
0	3680	105.7052	1
0	3687	105.9054	1
0	3700	106.3058	1
0	3711	106.7062	1
0	3715	106.9064	1
0	3725	107.3068	1
0	3726	107.507	1
0	3727	107.7072	1
0	3734	107.9074	1
0	3746	108.1076	1
0	3749	108.3078	1
0	3760	108.508	1
0	3768	108.7082	1
0	3771	108.9084	1
0	3772	109.1086	1
0	3773	109.3088	1
0	3774	109.509	1
0	3778	109.7092	1
1	1	0	2
1	21	0.388056992192	2
1	55	1.6012	1
1	61	1.646907198619	1
1	77	1.886209576054	2
1	102	2.864189467379	3
1	144	4.458399226058	5
1	208	5.816322168926	7
1	244	7.407	3
1	282	8.465597494041	3
1	318	9.331342660967	5
1	378	10.797725377366	8
1	461	12.8124	4
1	505	13.773210127838	4
1	565	14.899840041377	6
1	620	15.910972984947	9
1	679	18.0176	4
1	701	19.419	1
1	714	19.709034266599	1
1	730	19.997442697141	2
1	761	21.226038695362	3
1	776	22.6222	1
1	792	23.163869197701	1
1	810	23.399611369809	2
1	833	23.983930526241	4
1	877	24.954004493207	6
1	950	26.578664915345	9
1	1019	28.8284	4
1	1041	30.2298	1
1	1059	30.588382891915	1
1	1077	31.141594323519	2
1	1100	31.809294650058	3
1	1139	32.809601624767	5
1	1197	34.50196628656	7
1	1238	36.2358	3
1	1269	36.624645262667	3
1	1302	37.427370755811	5
1	1369	38.856527682267	8
1	1440	40.567183428161	12
1	1505	42.442	6
1	1567	44.444	2
1	1586	44.721273685165	2
1	1614	45.431890327682	3
1	1650	47.0466	1
1	1663	47.275550190629	1
1	1680	47.742099739976	2
1	1714	49.2488	1
1	1720	49.269265397697	1
1	1740	49.707356779867	1
1	1759	50.057332774623	2
1	1784	50.462419201928	4
1	1816	51.023791685691	6
1	1890	52.716753944024	9
1	1983	54.6512895663	13
1	2042	56.6562	6
1	2070	58.0576	2
1	2092	59.078763866715	2
1	2121	60.184742398286	3
1	2160	61.390409687543	5
1	2174	62.6622	2
1	2204	63.355755460363	2
1	2230	63.876814794099	3
1	2262	64.620412142576	5
1	2324	66.169989368397	8
1	2394	67.730669831271	12
1	2481	70.2698	6
1	2554	72.387130861826	6
1	2601	74.0736	3
1	2634	75.223285838082	3
1	2674	76.07077923735	4
1	2688	77.2768	2
1	2710	77.783987018373	2
1	2734	78.306777985295	3
1	2775	79.019949829671	5
1	2838	80.984109504347	8
1	2867	82.482	4
1	2911	83.760414915202	4
1	2954	84.776484229242	6
1	3011	86.6862	3
1	3049	87.971809007724	3
1	3082	89.294689238629	4
1	3133	91.2908	2
1	3161	92.450105279959	2
1	3197	93.695248515223	3
1	3231	94.629327757756	5
1	3255	95.8954	2
1	3270	96.053715624745	2
1	3297	96.423890924435	3
1	3329	96.91663811258	5
1	3388	98.301617983961	8
1	3483	100.600649194207	13
1	3608	102.900482428136	19
1	3648	104.504	10
1	3700	106.3058	3
1	3734	107.9074	1
1	3740	107.913337139962	1
1	3762	108.587136992381	1
1	3778	109.7092	0
2	2	0	1
2	22	0.388056992192	1
2	56	1.6012	1
2	63	1.646907198619	1
2	79	1.886209576054	1
2	103	2.864189467379	1
2	145	4.458399226058	1
2	210	5.816322168926	1
2	245	7.407	1
2	284	8.465597494041	1
2	320	9.331342660967	1
2	380	10.797725377366	1
2	462	12.8124	1
2	507	13.773210127838	1
2	566	14.899840041377	1
2	621	15.910972984947	1
2	680	18.0176	1
2	702	19.419	1
2	716	19.709034266599	1
2	732	19.997442697141	1
2	762	21.226038695362	1
2	777	22.6222	1
2	794	23.163869197701	1
2	812	23.399611369809	1
2	834	23.983930526241	1
2	879	24.954004493207	1
2	951	26.578664915345	1
2	1020	28.8284	1
2	1042	30.2298	1
2	1061	30.588382891915	1
2	1079	31.141594323519	1
2	1101	31.809294650058	1
2	1141	32.809601624767	1
2	1198	34.50196628656	1
2	1239	36.2358	1
2	1270	36.624645262667	1
2	1303	37.427370755811	1
2	1370	38.856527682267	1
2	1441	40.567183428161	1
2	1506	42.442	1
2	1568	44.444	1
2	1587	44.721273685165	1
2	1615	45.431890327682	1
2	1651	47.0466	1
2	1665	47.275550190629	1
2	1682	47.742099739976	1
2	1715	49.2488	1
2	1722	49.269265397697	1
2	1742	49.707356779867	1
2	1761	50.057332774623	1
2	1785	50.462419201928	1
2	1817	51.023791685691	1
2	1892	52.716753944024	1
2	1984	54.6512895663	1
2	2043	56.6562	1
2	2071	58.0576	1
2	2094	59.078763866715	1
2	2122	60.184742398286	1
2	2162	61.390409687543	1
2	2175	62.6622	1
2	2205	63.355755460363	1
2	2231	63.876814794099	1
2	2263	64.620412142576	1
2	2325	66.169989368397	1
2	2395	67.730669831271	1
2	2482	70.2698	1
2	2555	72.387130861826	1
2	2602	74.0736	1
2	2636	75.223285838082	1
2	2676	76.07077923735	1
2	2689	77.2768	1
2	2711	77.783987018373	1
2	2735	78.306777985295	1
2	2776	79.019949829671	1
2	2840	80.984109504347	1
2	2868	82.482	1
2	2913	83.760414915202	1
2	2955	84.776484229242	1
2	3012	86.6862	1
2	3051	87.971809007724	1
2	3083	89.294689238629	1
2	3134	91.2908	1
2	3163	92.450105279959	1
2	3199	93.695248515223	1
2	3232	94.629327757756	1
2	3256	95.8954	1
2	3271	96.053715624745	1
2	3298	96.423890924435	1
2	3330	96.91663811258	1
2	3390	98.301617983961	1
2	3485	100.600649194207	1
2	3609	102.900482428136	1
2	3649	104.504	1
2	3701	106.3058	1
2	3735	107.9074	1
2	3742	107.913337139962	1
2	3764	108.587136992381	1
2	3779	109.7092	1
3	6	0.087856992192	1
3	9	0.107723332959	1
3	33	0.823777783242	1
3	47	1.446707198619	1
3	50	1.527759485918	1
3	67	1.686009576054	1
3	88	2.563989467379	1
3	116	3.92361729734	1
3	126	4.158199226058	1
3	129	4.191139137606	1
3	149	4.522270639911	1
3	158	4.699161120275	1
3	177	5.207375288622	1
3	183	5.360384608913	1
3	198	5.616122168926	1
3	214	5.849493078192	1
3	220	5.97273320139	1
3	250	7.614523570689	1
3	253	7.687292658748	1
3	272	8.265397494041	1
3	275	8.294863175281	1
3	289	8.661760216099	1
3	308	9.131142660967	1
3	328	9.730298490325	1
3	338	9.934054186594	1
3	342	10.031278966658	1
3	347	10.091599136589	1
3	368	10.597525377366	1
3	389	11.339434011982	1
3	392	11.380575261141	1
3	398	11.492688790369	1
3	405	11.572611472865	1
3	418	11.759804295575	1
3	421	11.804186360201	1
3	429	11.927068024952	1
3	453	12.663097046349	1
3	470	13.009940641585	1
3	483	13.269520062536	1
3	495	13.573010127838	1
3	511	13.810149679565	1
3	524	14.130789489591	1
3	539	14.591490093033	1
3	546	14.699640041377	1
3	549	14.704780874439	1
3	558	14.822042602668	1
3	561	14.856347211501	1
3	570	14.958714448991	1
3	599	15.571876096645	1
3	608	15.710772984947	1
3	631	16.338223723274	1
3	636	16.392710622383	1
3	656	17.173013588239	1
3	660	17.23638381183	1
3	685	18.346026306061	1
3	706	19.508834266599	1
3	720	19.797242697141	1
3	743	20.925838695362	1
3	746	20.95905853321	1
3	752	21.03212653551	1
3	782	22.963669197701	1
3	785	22.972281591855	1
3	798	23.199411369809	1
3	802	23.279510360296	1
3	820	23.683730526241	1
3	841	24.104938602396	1
3	867	24.753804493207	1
3	887	25.282977795382	1
3	897	25.61808104735	1
3	901	25.626201098165	1
3	914	25.916089035664	1
3	927	26.217772018513	1
3	936	26.378464915345	1
3	939	26.379040147334	1
3	958	26.790007123509	1
3	973	27.043610581857	1
3	992	27.636416519095	1
3	1002	27.993795371567	1
3	1024	28.903404773762	1
3	1046	30.388182891915	1
3	1049	30.390195941243	1
3	1055	30.495156170243	1
3	1069	30.941394323519	1
3	1087	31.509094650058	1
3	1106	31.894021281637	1
3	1129	32.609401624767	1
3	1133	32.687399247017	1
3	1151	33.583645408897	1
3	1168	34.0011664475	1
3	1171	34.00194228208	1
3	1187	34.30176628656	1
3	1202	34.523635978323	1
3	1215	34.827029086004	1
3	1235	36.222932756393	1
3	1243	36.24627128352	1
3	1253	36.424445262667	1
3	1257	36.49272962711	1
3	1283	37.080929595643	1
3	1291	37.227170755811	1
3	1310	37.503903185776	1
3	1322	37.832303759415	1
3	1338	38.347992472222	1
3	1341	38.424118586097	1
3	1355	38.656327682267	1
3	1358	38.701685773111	1
3	1360	38.7120260708	1
3	1382	39.666983428161	1
3	1385	39.698658435819	1
3	1390	39.82902813869	1
3	1398	39.870387165521	1
3	1411	40.095456796456	1
3	1417	40.196727058094	1
3	1419	40.219207870647	1
3	1457	41.391704394648	1
3	1466	41.504424816321	1
3	1483	41.854087700512	1
3	1486	41.94374663893	1
3	1510	42.537491539682	1
3	1528	43.540466814291	1
3	1538	43.832681709932	1
3	1547	43.998459100006	1
3	1562	44.351551104924	1
3	1575	44.521073685165	1
3	1597	45.105851681506	1
3	1603	45.231690327682	1
3	1627	46.146225488028	1
3	1630	46.222201992195	1
3	1655	47.075350190629	1
3	1672	47.541899739976	1
3	1690	48.151560630723	1
3	1706	49.069065397697	1
3	1709	49.103694315169	1
3	1729	49.507156779867	1
3	1736	49.663931088675	1
3	1747	49.857132774623	1
3	1750	49.869786959262	1
3	1765	50.162219201928	1
3	1779	50.438875903205	1
3	1789	50.523591685691	1
3	1822	51.080208992983	1
3	1825	51.13999782262	1
3	1827	51.158371761929	1
3	1853	51.790736488651	1
3	1857	51.863913650683	1
3	1877	52.516553944024	1
3	1886	52.675762977097	1
3	1899	53.036939134134	1
3	1903	53.134973688025	1
3	1908	53.185425630498	1
3	1932	53.740235862259	1
3	1935	53.808297522637	1
3	1947	53.960201408329	1
3	1958	54.094601075372	1
3	1973	54.4510895663	1
3	1997	55.544724399695	1
3	2007	55.782746539651	1
3	2011	55.8726754496	1
3	2026	56.179229318657	1
3	2048	56.953972334266	1
3	2064	57.934602640466	1
3	2084	58.878563866715	1
3	2104	59.884542398286	1
3	2107	59.915673500392	1
3	2109	59.957126529581	1
3	2132	60.540942001076	1
3	2152	61.190209687543	1
3	2180	63.006913620389	1
3	2187	63.155555460363	1
3	2197	63.307798867658	1
3	2200	63.344996913631	1
3	2212	63.576614794099	1
3	2221	63.745857105585	1
3	2240	64.220212142576	1
3	2253	64.470138119813	1
3	2267	64.633395215021	1
3	2293	65.769789368397	1
3	2296	65.782316011469	1
3	2302	65.944869777612	1
3	2309	66.002849701874	1
3	2311	66.007205993856	1
3	2318	66.143062332216	1
3	2336	66.830469831271	1
3	2340	66.874221711103	1
3	2342	66.915445631443	1
3	2353	67.07147382312	1
3	2366	67.299231917781	1
3	2390	67.717831631819	1
3	2408	68.381777035081	1
3	2429	68.931759357901	1
3	2441	69.184832547747	1
3	2453	69.39164675015	1
3	2465	69.598737674457	1
3	2488	70.834868525403	1
3	2502	71.399006521856	1
3	2512	71.649189011518	1
3	2515	71.656399765385	1
3	2529	71.889403361057	1
3	2542	72.186930861826	1
3	2545	72.206143097603	1
3	2559	72.391636312236	1
3	2565	72.490617886438	1
3	2595	73.963721165301	1
3	2612	74.457321258477	1
3	2626	75.023085838082	1
3	2641	75.368714164086	1
3	2644	75.388129589806	1
3	2662	75.87057923735	1
3	2666	75.944538104378	1
3	2694	77.483787018373	1
3	2706	77.694572627711	1
3	2718	78.006577985295	1
3	2741	78.431417827279	1
3	2754	78.67851111441	1
3	2760	78.819749829671	1
3	2769	78.905494207043	1
3	2780	79.061685504042	1
3	2796	79.360406455615	1
3	2816	80.250905062129	1
3	2830	80.783909504347	1
3	2850	81.858799232583	1
3	2864	82.479428113915	1
3	2875	82.66272938845	1
3	2882	82.759275703617	1
3	2903	83.560214915202	1
3	2921	84.235984758002	1
3	2928	84.376284229242	1
3	2931	84.43013871283	1
3	2936	84.460365674451	1
3	2962	84.959691643103	1
3	2973	85.221513673933	1
3	2992	86.170435909831	1
3	3003	86.548889595108	1
3	3022	86.989436119005	1
3	3037	87.771609007724	1
3	3040	87.819567678603	1
3	3066	88.994489238629	1
3	3069	89.040154066029	1
3	3090	89.554438216888	1
3	3102	89.879817672075	1
3	3118	90.377997065433	1
3	3140	91.816590062279	1
3	3153	92.249905279959	1
3	3172	93.071841692845	1
3	3186	93.495048515223	1
3	3192	93.600925725261	1
3	3207	94.111274746333	1
3	3221	94.429127757756	1
3	3246	95.711244723435	1
3	3252	95.853515624745	1
3	3266	96.017297762419	1
3	3283	96.223690924435	1
3	3286	96.254038436513	1
3	3307	96.61643811258	1
3	3313	96.71232546147	1
3	3322	96.858644742026	1
3	3334	96.946272192234	1
3	3354	97.596851166164	1
3	3363	97.755025848024	1
3	3378	98.101417983961	1
3	3397	98.683253235285	1
3	3401	98.761434203791	1
3	3403	98.78312640527	1
3	3414	98.950983293722	1
3	3427	99.160063091182	1
3	3440	99.419522716349	1
3	3457	100.006668366454	1
3	3470	100.400449194207	1
3	3479	100.507846376226	1
3	3489	100.623435313699	1
3	3492	100.646360324601	1
3	3515	101.136404981488	1
3	3520	101.233429864273	1
3	3537	101.656645359616	1
3	3540	101.687763239452	1
3	3543	101.723096932908	1
3	3567	102.300282428136	1
3	3571	102.337932766901	1
3	3576	102.403253589721	1
3	3586	102.550796477851	1
3	3592	102.626865897252	1
3	3617	103.227047792847	1
3	3634	103.816960969917	1
3	3654	104.721905229483	1
3	3667	105.303687524756	1
3	3681	105.800493966796	1
3	3692	106.112019216477	1
3	3712	106.851442938321	1
3	3728	107.713137139962	1
3	3750	108.386936992381	1
3	3753	108.408526978876	1
3	3755	108.473931444704	1
3	3775	109.647240403752	1
3	3790	109.954818940591	1
3	3796	110.251003146664	1
3	3800	110.402150821924	1
3	3804	110.528248376892	1
3	3809	110.997913321856	1
3	3815	111.609367098765	1
3	3818	111.619656666536	1
3	3823	111.996640702406	1
3	3826	112.063107251878	1
3	3837	113.569917670167	1
3	3840	113.620227418178	1
3	3843	113.660028378997	1
3	3853	115.033275942855	1
3	3858	115.337667414249	1
3	3865	116.278860699316	1
3	3869	116.50294074187	1
3	3875	116.931665077536	1
3	3879	117.301381005277	1
3	3887	118.26372380932	1
3	3891	118.360633896876	1
3	3896	118.828342003276	1
3	3899	118.839410717996	1
3	3903	119.00928100988	1
3	3907	119.284301256015	1
3	3914	120.055854968913	1
3	3918	120.214640860001	1
3	3922	120.514938349503	1
3	3929	121.294988477064	1
3	3935	121.913867704884	1
3	3940	122.129108962546	1
3	3943	122.164167515646	1
3	3947	122.354010790428	1
3	3950	122.400681731941	1
3	3955	122.751429361496	1
3	3960	123.201464792912	1
3	3964	123.463628107795	1
3	3968	123.545148374176	1
3	3976	124.682516177748	1
3	3980	124.840064169905	1
3	3986	125.384644939961	1
3	3994	126.398260889962	1
3	3998	126.638556870158	1
3	4003	127.113058271285	1
3	4007	127.196066961006	1
3	4011	127.39138114872	1
3	4015	127.715586506139	1
3	4019	127.779108512151	1
3	4024	128.262323326942	1
3	4028	128.525411118372	1
3	4034	129.018921323477	1
3	4037	129.059383876682	1
3	4049	130.822183108456	1
3	4054	131.247818574415	1
3	4058	131.334106625018	1
3	4063	131.871299065539	1
3	4067	132.065372056286	1
3	4074	132.751129997851	1
3	4078	132.944115286242	1
3	4083	133.368104710971	1
3	4086	133.502390583823	1
3	4093	134.311869931064	1
3	4097	134.470999129899	1
3	4103	134.977496169341	1
3	4107	135.204987512864	1
3	4112	135.703861923016	1
3	4117	135.977241156957	1
3	4120	136.00524987734	1
3	4123	136.113119210442	1
3	4127	136.149656637826	1
3	4130	136.200158302572	1
3	4133	136.314141507121	1
3	4137	136.439922059738	1
3	4140	136.497823451982	1
3	4144	136.549181869076	1
3	4147	136.589936611567	1
3	4150	136.723736758028	1
3	4155	136.952020945985	1
3	4160	137.349930147228	1
3	4163	137.486701016871	1
3	4168	137.808578253451	1
3	4173	138.226685819714	1
3	4186	140.28723150251	1
3	4190	140.481412995694	1
3	4195	140.769484460499	1
3	4201	141.425108590011	1
3	4205	141.703596950029	1
3	4209	141.924438022304	1
3	4214	142.284307716159	1
3	4221	142.976163601548	1
3	4226	143.43029289601	1
3	4229	143.452317540877	1
3	4234	143.78713708802	1
3	4237	143.842297926827	1
3	4242	144.153079173533	1
3	4246	144.519057966246	1
3	4251	144.844166119641	1
3	4255	145.015369799348	1
3	4259	145.168730140463	1
3	4263	145.385898112856	1
3	4268	145.911702403418	1
3	4272	145.951369218435	1
3	4276	146.276122233357	1
3	4279	146.344583283935	1
3	4283	146.474065599203	1
3	4288	146.77343126484	1
3	4291	146.872087039769	1
3	4296	147.152318873337	1
3	4299	147.178195387265	1
3	4303	147.399684185401	1
3	4307	147.549237579479	1
3	4313	148.198636468981	1
3	4316	148.20316243187	1
3	4319	148.327411995742	1
3	4323	148.390794372729	1
3	4327	148.741786642213	1
3	4331	148.763579497282	1
3	4334	148.946227816356	1
3	4338	149.060308965986	1
3	4342	149.286532606468	1
3	4346	149.436409617916	1
3	4353	150.150193412687	1
3	4357	150.463297751634	1
3	4361	150.629273930715	1
3	4367	151.151373565047	1
3	4371	151.382689541052	1
3	4375	151.725750689856	1
3	4379	151.778695874409	1
3	4382	151.839586642215	1
3	4385	151.867040899232	1
3	4392	152.651768746313	1
3	4397	153.059532293669	1
3	4402	153.518566252578	1
3	4408	154.118868602166	1
3	4413	154.35991120333	1
3	4417	154.695540468344	1
3	4422	155.056675521075	1
3	4429	155.849125043908	1
3	4433	156.098422771513	1
3	4438	156.446910875366	1
3	4441	156.511371445995	1
3	4447	157.07524087233	1
3	4452	157.434245798521	1
3	4456	157.591577171432	1
3	4466	159.144501831833	1
3	4469	159.154338385621	1
3	4475	159.669226532446	1
3	4483	160.596634124928	1
3	4486	160.66672474918	1
3	4490	160.956227318515	1
3	4494	161.000877143555	1
3	4500	161.667183124206	1
3	4508	162.599637553511	1
3	4512	162.795856142888	1
3	4519	163.639016205574	1
3	4524	164.073276744928	1
3	4529	164.557340150597	1
3	4536	165.259157401029	1
3	4541	165.75942414737	1
3	4545	165.954374436417	1
3	4549	166.008334789883	1
3	4558	167.337112896323	1
3	4564	167.921968665935	1
3	4569	168.293059700028	1
3	4572	168.367798329877	1
3	4576	168.454950229044	1
3	4579	168.513791199253	1
3	4582	168.521487522525	1
3	4586	168.704430436633	1
3	4591	169.082964683244	1
3	4594	169.083098723747	1
3	4597	169.166518037005	1
3	4604	169.820204815816	1
3	4607	169.929887971281	1
3	4611	169.991383829488	1
3	4616	170.545856470675	1
3	4622	171.016325077237	1
3	4625	171.03784120397	1
3	4629	171.343900525318	1
3	4633	171.489260307147	1
3	4639	172.004042771073	1
3	4643	172.297891429069	1
3	4648	172.618587205772	1
3	4653	172.991119239931	1
3	4661	174.130807719531	1
3	4665	174.370721347353	1
3	4669	174.537908794886	1
3	4674	174.83428652448	1
3	4678	175.074801512504	1
3	4688	176.436367924304	1
3	4692	176.580918417408	1
3	4697	177.080011593872	1
3	4702	177.555210018317	1
3	4715	179.565638030719	1
3	4719	179.690722282531	1
3	4726	180.550944170673	1
3	4732	181.11212983231	1
3	4740	182.042483047561	1
3	4743	182.073937464853	1
3	4746	182.112274339036	1
3	4750	182.206335903862	1
3	4753	182.213276413079	1
3	4757	182.415070313926	1
3	4760	182.513839237856	1
3	4763	182.560993816834	1
3	4766	182.571929033487	1
3	4770	182.651358290497	1
3	4773	182.717705773677	1
3	4779	183.3625004016	1
3	4785	183.97810466792	1
3	4789	184.141171055096	1
3	4797	185.083879739944	1
3	4800	185.170250180928	1
3	4807	185.920956423873	1
3	4813	186.576039373638	1
3	4816	186.581531429353	1
3	4821	186.881323252731	1
3	4825	187.002677060523	1
3	4829	187.354198716183	1
3	4835	187.881161107669	1
3	4842	188.650314652998	1
3	4846	188.883630407402	1
3	4851	189.321697523906	1
3	4857	189.851216572849	1
3	4860	189.959029898447	1
3	4873	191.957436265914	1
3	4876	191.960850776258	1
3	4880	191.992783737842	1
3	4884	192.271844370662	1
3	4887	192.331620721734	1
3	4892	192.761903814883	1
3	4896	192.97699121352	1
3	4902	193.55040467462	1
3	4911	194.752179411352	1
3	4915	194.826215488455	1
3	4918	194.827935928781	1
3	4922	195.179933579357	1
3	4926	195.255067702095	1
3	4934	196.231420401314	1
3	4938	196.424433909541	1
3	4941	196.52896395015	1
3	4948	197.314278951418	1
3	4952	197.435375461003	1
3	4957	197.959071987161	1
3	4961	198.153149048334	1
3	4965	198.245860476015	1
3	4969	198.542210645196	1
3	4973	198.615270682819	1
4	7	0.087856992192	1
4	10	0.107723332959	1
4	34	0.823777783242	1
4	48	1.446707198619	1
4	51	1.527759485918	1
4	68	1.686009576054	2
4	89	2.563989467379	2
4	117	3.92361729734	1
4	127	4.158199226058	1
4	130	4.191139137606	1
4	150	4.522270639911	1
4	159	4.699161120275	1
4	178	5.207375288622	1
4	184	5.360384608913	1
4	199	5.616122168926	1
4	215	5.849493078192	1
4	221	5.97273320139	1
4	251	7.614523570689	1
4	254	7.687292658748	1
4	273	8.265397494041	1
4	276	8.294863175281	1
4	290	8.661760216099	2
4	309	9.131142660967	1
4	329	9.730298490325	1
4	339	9.934054186594	1
4	343	10.031278966658	1
4	348	10.091599136589	1
4	369	10.597525377366	1
4	390	11.339434011982	1
4	393	11.380575261141	1
4	399	11.492688790369	1
4	406	11.572611472865	1
4	419	11.759804295575	1
4	422	11.804186360201	1
4	430	11.927068024952	1
4	454	12.663097046349	1
4	471	13.009940641585	1
4	484	13.269520062536	1
4	496	13.573010127838	1
4	512	13.810149679565	1
4	525	14.130789489591	1
4	540	14.591490093033	1
4	547	14.699640041377	1
4	550	14.704780874439	1
4	559	14.822042602668	2
4	562	14.856347211501	3
4	571	14.958714448991	4
4	600	15.571876096645	1
4	609	15.710772984947	1
4	632	16.338223723274	1
4	637	16.392710622383	1
4	657	17.173013588239	1
4	661	17.23638381183	1
4	686	18.346026306061	1
4	707	19.508834266599	1
4	721	19.797242697141	1
4	744	20.925838695362	1
4	747	20.95905853321	1
4	753	21.03212653551	1
4	783	22.963669197701	2
4	786	22.972281591855	2
4	799	23.199411369809	3
4	803	23.279510360296	3
4	821	23.683730526241	4
4	842	24.104938602396	3
4	868	24.753804493207	1
4	888	25.282977795382	1
4	898	25.61808104735	1
4	902	25.626201098165	1
4	915	25.916089035664	1
4	928	26.217772018513	1
4	937	26.378464915345	1
4	940	26.379040147334	1
4	959	26.790007123509	2
4	974	27.043610581857	1
4	993	27.636416519095	1
4	1003	27.993795371567	1
4	1025	28.903404773762	1
4	1047	30.388182891915	1
4	1050	30.390195941243	1
4	1056	30.495156170243	2
4	1070	30.941394323519	3
4	1088	31.509094650058	3
4	1107	31.894021281637	2
4	1130	32.609401624767	1
4	1134	32.687399247017	1
4	1152	33.583645408897	2
4	1169	34.0011664475	1
4	1172	34.00194228208	1
4	1188	34.30176628656	1
4	1203	34.523635978323	1
4	1216	34.827029086004	1
4	1236	36.222932756393	1
4	1244	36.24627128352	1
4	1254	36.424445262667	1
4	1258	36.49272962711	1
4	1284	37.080929595643	1
4	1292	37.227170755811	1
4	1311	37.503903185776	1
4	1323	37.832303759415	1
4	1339	38.347992472222	1
4	1342	38.424118586097	1
4	1356	38.656327682267	1
4	1359	38.701685773111	1
4	1361	38.7120260708	2
4	1383	39.666983428161	3
4	1386	39.698658435819	3
4	1391	39.82902813869	3
4	1399	39.870387165521	3
4	1412	40.095456796456	2
4	1418	40.196727058094	2
4	1420	40.219207870647	3
4	1458	41.391704394648	2
4	1467	41.504424816321	1
4	1484	41.854087700512	1
4	1487	41.94374663893	1
4	1511	42.537491539682	1
4	1529	43.540466814291	1
4	1539	43.832681709932	1
4	1548	43.998459100006	1
4	1563	44.351551104924	1
4	1576	44.521073685165	1
4	1598	45.105851681506	1
4	1604	45.231690327682	1
4	1628	46.146225488028	1
4	1631	46.222201992195	1
4	1656	47.075350190629	1
4	1673	47.541899739976	1
4	1691	48.151560630723	1
4	1707	49.069065397697	1
4	1710	49.103694315169	1
4	1730	49.507156779867	2
4	1737	49.663931088675	2
4	1748	49.857132774623	3
4	1751	49.869786959262	3
4	1766	50.162219201928	4
4	1780	50.438875903205	3
4	1790	50.523591685691	4
4	1823	51.080208992983	1
4	1826	51.13999782262	1
4	1828	51.158371761929	2
4	1854	51.790736488651	1
4	1858	51.863913650683	1
4	1878	52.516553944024	1
4	1887	52.675762977097	1
4	1900	53.036939134134	2
4	1904	53.134973688025	2
4	1909	53.185425630498	2
4	1933	53.740235862259	1
4	1936	53.808297522637	1
4	1948	53.960201408329	1
4	1959	54.094601075372	1
4	1974	54.4510895663	1
4	1998	55.544724399695	1
4	2008	55.782746539651	1
4	2012	55.8726754496	1
4	2027	56.179229318657	1
4	2049	56.953972334266	1
4	2065	57.934602640466	1
4	2085	58.878563866715	1
4	2105	59.884542398286	1
4	2108	59.915673500392	1
4	2110	59.957126529581	2
4	2133	60.540942001076	2
4	2153	61.190209687543	1
4	2181	63.006913620389	1
4	2188	63.155555460363	1
4	2198	63.307798867658	1
4	2201	63.344996913631	2
4	2213	63.576614794099	3
4	2222	63.745857105585	2
4	2241	64.220212142576	3
4	2254	64.470138119813	1
4	2268	64.633395215021	2
4	2294	65.769789368397	1
4	2297	65.782316011469	1
4	2303	65.944869777612	1
4	2310	66.002849701874	1
4	2312	66.007205993856	2
4	2319	66.143062332216	3
4	2337	66.830469831271	4
4	2341	66.874221711103	4
4	2343	66.915445631443	5
4	2354	67.07147382312	4
4	2367	67.299231917781	3
4	2391	67.717831631819	1
4	2409	68.381777035081	2
4	2430	68.931759357901	1
4	2442	69.184832547747	1
4	2454	69.39164675015	1
4	2466	69.598737674457	1
4	2489	70.834868525403	1
4	2503	71.399006521856	1
4	2513	71.649189011518	1
4	2516	71.656399765385	1
4	2530	71.889403361057	1
4	2543	72.186930861826	1
4	2546	72.206143097603	1
4	2560	72.391636312236	2
4	2566	72.490617886438	2
4	2596	73.963721165301	1
4	2613	74.457321258477	1
4	2627	75.023085838082	1
4	2642	75.368714164086	1
4	2645	75.388129589806	1
4	2663	75.87057923735	1
4	2667	75.944538104378	1
4	2695	77.483787018373	2
4	2707	77.694572627711	1
4	2719	78.006577985295	2
4	2742	78.431417827279	1
4	2755	78.67851111441	1
4	2761	78.819749829671	1
4	2770	78.905494207043	1
4	2781	79.061685504042	2
4	2797	79.360406455615	1
4	2817	80.250905062129	1
4	2831	80.783909504347	1
4	2851	81.858799232583	1
4	2865	82.479428113915	1
4	2876	82.66272938845	1
4	2883	82.759275703617	1
4	2904	83.560214915202	1