version 3
run FeedbackVersion-13-20240511-20:45:11-11876
attr configname FeedbackVersion
attr datetime 20240511-20:45:11
attr datetimef 20240511-204511
attr experiment FeedbackVersion
attr inifile omnetpp.ini
attr iterationvars $genInterval=0.75
attr iterationvarsd genInterval=0.75
attr iterationvarsf genInterval=0.75-
attr measurement $genInterval=0.75
attr network NetworkFV
attr processid 11876
attr repetition 0
attr replication #0
attr resultdir results
attr runnumber 13
attr seedset 13
itervar genInterval 0.75
config network NetworkFV
config sim-time-limit 200s
config NetworkFV.nodeTx.gen.generationInterval exponential(0.75)
config NetworkFV.nodeTx.gen.packetByteSize 12500
config NetworkFV.queueOne.bufferSize 200
config NetworkFV.nodeRx.queue.bufferSize 200
config NetworkFV.nodeTx.queue.bufferSize 2000000
config NetworkFV.queueZero.bufferSize 200

vector 0 NetworkFV.nodeRx.queue PacketsLost ETV
vector 1 NetworkFV.nodeRx.queue PacketsAsked ETV
vector 2 NetworkFV.queueOne bufferSize ETV
vector 3 NetworkFV.nodeTx.gen packetGen ETV
vector 4 NetworkFV.nodeTx.queue BufferSize ETV
vector 5 NetworkFV.nodeTx.queue PacketsSent ETV
vector 6 NetworkFV.queueZero bufferSize ETV
vector 7 NetworkFV.nodeRx.queue BufferSize ETV
vector 8 NetworkFV.nodeRx.sink Delay ETV
vector 9 NetworkFV.nodeRx.sink packetUsed ETV
0	1	0	1
0	6	0.2	1
0	7	0.4	1
0	8	0.6	1
0	9	0.8	1
0	10	1	1
0	14	1.2	1
0	36	1.6002	1
0	37	1.8004	1
0	44	2.0006	1
0	67	2.6012	1
0	68	2.8014	1
0	69	3.0016	1
0	70	3.2018	1
0	71	3.402	1
0	75	3.6022	1
0	90	3.8024	1
0	93	4.0026	1
0	94	4.2028	1
0	95	4.403	1
0	96	4.6032	1
0	97	4.8034	1
0	105	5.0036	1
0	110	5.2038	1
0	115	5.404	1
0	120	5.6042	1
0	121	5.8044	1
0	122	6.0046	1
0	123	6.2048	1
0	124	6.405	1
0	131	6.6052	1
1	1	0	2
1	14	1.2	1
1	23	1.328003725266	0
1	29	1.4	1
1	46	2.029114652722	2
1	75	3.6022	1
1	84	3.704078449948	1
1	97	4.8034	0
1	105	5.0036	0
1	110	5.2038	0
1	115	5.404	1
1	131	6.6052	0
2	2	0	1
2	15	1.2	1
2	25	1.328003725266	1
2	30	1.4	1
2	48	2.029114652722	1
2	76	3.6022	1
2	86	3.704078449948	1
2	98	4.8034	1
2	106	5.0036	1
2	111	5.2038	1
2	116	5.404	1
2	132	6.6052	1
3	11	1.127803725266	1
3	38	1.828914652722	1
3	52	2.032319771982	1
3	72	3.503878449948	1
3	102	4.808019759619	1
3	125	6.484093232792	1
3	153	9.01462728034	1
3	156	9.162691625837	1
3	173	11.860631237514	1
3	181	12.926556526211	1
3	186	13.37965259994	1
3	195	14.424374554323	1
3	201	15.128741798555	1
3	208	15.829856574624	1
3	216	16.950354819353	1
3	225	18.135341882729	1
3	232	18.904949012025	1
3	237	19.273268932926	1
3	245	20.233418740183	1
3	249	20.545449958846	1
3	252	20.572198727019	1
3	259	21.38553588026	1
3	264	21.65138264198	1
3	275	23.421128671674	1
3	279	23.466349316678	1
3	286	24.421155330163	1
3	297	25.880158021005	1
3	302	26.358573345658	1
3	307	26.708505310571	1
3	312	27.223887095046	1
3	320	28.07810653225	1
3	325	28.521409930962	1
3	329	28.743477870412	1
3	335	29.310663608352	1
3	340	29.630965067668	1
3	361	33.379252657685	1
3	364	33.386345668785	1
3	371	34.101166938796	1
3	376	34.433932206428	1
3	379	34.583051023471	1
3	393	36.8163845594	1
3	401	37.778832276382	1
3	405	37.96316082597	1
3	419	40.062133088704	1
3	423	40.350708959847	1
3	429	40.930482090741	1
3	441	42.804180141861	1
3	447	43.280533959993	1
3	450	43.304851718703	1
3	456	44.039339581479	1
3	460	44.089813957637	1
3	467	44.967664625544	1
3	474	45.713007290856	1
3	478	45.96857266674	1
3	489	47.521068100919	1
3	492	47.561780814004	1
3	495	47.568346264188	1
3	504	48.73055721982	1
3	512	49.760079351647	1
3	518	50.319743297255	1
3	527	51.576591567909	1
3	531	51.740984734775	1
3	534	51.800037831014	1
3	541	52.47831674707	1
3	548	53.279645363109	1
3	554	53.867086303586	1
3	559	54.400970284866	1
3	564	54.85138428616	1
3	570	55.341660972118	1
3	576	55.879094242937	1
3	590	58.214544476815	1
3	597	59.041940056641	1
3	600	59.041949085227	1
3	604	59.13642430302	1
3	608	59.349170632293	1
3	611	59.437858364452	1
3	619	60.372060632191	1
3	629	61.730948983698	1
3	633	62.025266684614	1
3	638	62.26331154971	1
3	642	62.506567308841	1
3	648	63.228540619086	1
3	656	64.120219421751	1
3	662	64.788294774343	1
3	675	66.66913528247	1
3	682	67.539287553397	1
3	686	67.749545057068	1
3	690	68.017285806437	1
3	696	68.476771522596	1
3	702	69.21021737638	1
3	706	69.428977604248	1
3	710	69.49882698549	1
3	714	69.856547763001	1
3	720	70.435072130979	1
3	727	71.13084914689	1
3	730	71.182644388855	1
3	739	72.292698581672	1
3	743	72.538850116588	1
3	746	72.591600577453	1
3	750	72.680007464395	1
3	757	73.548982419467	1
3	763	74.136649621452	1
3	769	74.732636149498	1
3	775	75.469311618716	1
3	779	75.580674486963	1
3	785	76.095901354592	1
3	788	76.173883476942	1
3	796	77.113677296377	1
3	800	77.325011056788	1
3	804	77.498381502622	1
3	807	77.621848824701	1
3	829	81.321118967575	1
3	841	83.273830703454	1
3	845	83.420586115023	1
3	852	84.275407982921	1
3	876	88.390633076103	1
3	880	88.594153988002	1
3	886	89.166220829616	1
3	892	89.797256571362	1
3	895	89.868688596647	1
3	901	90.478705052773	1
3	906	90.720415030244	1
3	909	90.777053736094	1
3	913	90.931357577869	1
3	923	92.304428567458	1
3	928	92.753228314674	1
3	933	93.143026546992	1
3	938	93.556834919058	1
3	941	93.674212119853	1
3	944	93.676398296694	1
3	948	93.835291457933	1
3	954	94.360959650314	1
3	959	94.866910031572	1
3	965	95.332522229833	1
3	972	96.266181808471	1
3	981	97.445373683857	1
3	1000	100.592081888194	1
3	1003	100.601480596236	1
3	1014	102.159781826423	1
3	1022	103.193364974732	1
3	1028	103.711789256329	1
3	1048	107.201943454393	1
3	1051	107.286635229731	1
3	1055	107.444388331192	1
3	1067	109.277610501255	1
3	1071	109.38607851882	1
3	1076	109.726576979465	1
3	1079	109.876416494283	1
3	1083	110.069123916777	1
3	1086	110.091802085175	1
3	1097	111.636130563141	1
3	1102	112.017766460852	1
3	1106	112.127714481829	1
3	1109	112.264710448145	1
3	1113	112.46697435745	1
3	1116	112.497581229158	1
3	1123	113.176222096033	1
3	1138	115.671713298987	1
3	1144	116.294164963156	1
3	1149	116.62698111179	1
3	1164	119.021425637282	1
3	1167	119.042021165616	1
3	1172	119.494829250351	1
3	1178	120.086258003115	1
3	1182	120.18980687629	1
3	1190	121.315871223575	1
3	1199	122.387984579276	1
3	1205	123.013944152809	1
3	1209	123.182835328556	1
3	1214	123.630120102568	1
3	1218	123.775062821714	1
3	1236	126.797493128935	1
3	1241	127.228507095919	1
3	1247	127.788207848125	1
3	1251	128.100140856714	1
3	1262	129.726767473064	1
3	1278	132.290977864017	1
3	1285	133.040603688743	1
3	1289	133.156364535205	1
3	1292	133.244985036273	1
3	1302	134.641099555816	1
3	1307	135.070958689504	1
3	1314	135.901107195894	1
3	1318	136.085009647461	1
3	1322	136.171824490084	1
3	1327	136.582552515399	1
3	1330	136.65184751358	1
3	1337	137.398928980993	1
3	1353	139.945236993444	1
3	1357	140.301943736764	1
3	1361	140.46397426132	1
3	1364	140.480201041145	1
3	1368	140.544287806733	1
3	1385	143.431987848708	1
3	1389	143.66738900853	1
3	1397	144.732853479158	1
3	1404	145.520499814136	1
3	1408	145.544261675028	1
3	1413	146.137790330177	1
3	1420	146.81063252022	1
3	1427	147.705468604432	1
3	1434	148.361718837953	1
3	1449	150.836337466483	1
3	1459	152.16731316057	1
3	1463	152.411321551111	1
3	1471	153.413695008347	1
3	1475	153.613259187229	1
3	1487	155.418492155978	1
3	1497	156.819998725268	1
3	1506	157.973824654668	1
3	1510	158.164232102143	1
3	1514	158.543019937172	1
3	1522	159.418765792057	1
3	1526	159.720978525281	1
3	1530	159.845957581517	1
3	1535	160.274715107668	1
3	1539	160.445453635074	1
3	1543	160.671116895434	1
3	1546	160.723611031106	1
3	1559	162.570551786362	1
3	1567	163.608731232074	1
3	1571	163.785316319377	1
3	1574	163.934227148316	1
3	1579	164.215377774833	1
3	1582	164.314892911973	1
3	1586	164.491125763614	1
3	1590	164.682108467077	1
3	1596	165.267629503319	1
3	1600	165.513444798937	1
3	1605	165.846535853404	1
3	1608	165.872341040418	1
3	1620	167.582404560272	1
3	1624	167.802578252006	1
3	1630	168.530846493455	1
3	1637	169.359745032103	1
3	1641	169.404534242478	1
3	1649	170.474618680316	1
3	1654	170.943405373376	1
3	1658	171.135556896059	1
3	1662	171.282673997059	1
3	1669	171.992445768233	1
3	1677	173.053488322359	1
3	1689	174.878487836175	1
3	1710	178.44735854432	1
3	1716	179.03238576486	1
3	1735	182.374688688282	1
3	1740	182.725926589786	1
3	1745	183.01481344606	1
3	1748	183.024779839408	1
3	1764	185.693156101193	1
3	1774	187.019119576881	1
3	1782	188.055397774818	1
3	1791	189.327304750604	1
3	1794	189.34393181394	1
3	1798	189.406239891117	1
3	1801	189.469699722128	1
3	1805	189.610962258163	1
3	1810	190.004088878688	1
3	1819	191.369898372835	1
3	1829	192.699313508821	1
3	1835	193.322174039912	1
3	1845	194.779173861353	1
3	1850	195.102009805726	1
3	1853	195.105272758948	1
3	1857	195.222765718079	1
3	1861	195.416580681595	1
3	1864	195.494367979146	1
3	1870	196.067436163971	1
3	1876	196.683480880538	1
3	1880	196.883608469143	1
3	1888	197.812184657935	1
3	1893	198.323932381	1
4	12	1.127803725266	1
4	39	1.828914652722	1
4	53	2.032319771982	1
4	73	3.503878449948	1
4	103	4.808019759619	1
4	126	6.484093232792	2
4	154	9.01462728034	2
4	157	9.162691625837	3
4	174	11.860631237514	4
4	182	12.926556526211	5
4	187	13.37965259994	6
4	196	14.424374554323	7
4	202	15.128741798555	8
4	209	15.829856574624	9
4	217	16.950354819353	10
4	226	18.135341882729	11
4	233	18.904949012025	12
4	238	19.273268932926	13
4	246	20.233418740183	14
4	250	20.545449958846	15
4	253	20.572198727019	16
4	260	21.38553588026	17
4	265	21.65138264198	18
4	276	23.421128671674	19
4	280	23.466349316678	20
4	287	24.421155330163	21
4	298	25.880158021005	22
4	303	26.358573345658	23
4	308	26.708505310571	24
4	313	27.223887095046	25
4	321	28.07810653225	26
4	326	28.521409930962	27
4	330	28.743477870412	28
4	336	29.310663608352	29
4	341	29.630965067668	30
4	362	33.379252657685	31
4	365	33.386345668785	32
4	372	34.101166938796	33
4	377	34.433932206428	34
4	380	34.583051023471	35
4	394	36.8163845594	36
4	402	37.778832276382	37
4	406	37.96316082597	38
4	420	40.062133088704	39
4	424	40.350708959847	40
4	430	40.930482090741	41
4	442	42.804180141861	42
4	448	43.280533959993	43
4	451	43.304851718703	44
4	457	44.039339581479	45
4	461	44.089813957637	46
4	468	44.967664625544	47
4	475	45.713007290856	48
4	479	45.96857266674	49
4	490	47.521068100919	50
4	493	47.561780814004	51
4	496	47.568346264188	52
4	505	48.73055721982	53
4	513	49.760079351647	54
4	519	50.319743297255	55
4	528	51.576591567909	56
4	532	51.740984734775	57
4	535	51.800037831014	58
4	542	52.47831674707	59
4	549	53.279645363109	60
4	555	53.867086303586	61
4	560	54.400970284866	62
4	565	54.85138428616	63
4	571	55.341660972118	64
4	577	55.879094242937	65
4	591	58.214544476815	66
4	598	59.041940056641	67
4	601	59.041949085227	68
4	605	59.13642430302	69
4	609	59.349170632293	70
4	612	59.437858364452	71
4	620	60.372060632191	72
4	630	61.730948983698	73
4	634	62.025266684614	74
4	639	62.26331154971	75
4	643	62.506567308841	76
4	649	63.228540619086	77
4	657	64.120219421751	78
4	663	64.788294774343	79
4	676	66.66913528247	80
4	683	67.539287553397	81
4	687	67.749545057068	82
4	691	68.017285806437	83
4	697	68.476771522596	84
4	703	69.21021737638	85
4	707	69.428977604248	86
4	711	69.49882698549	87
4	715	69.856547763001	88
4	721	70.435072130979	89
4	728	71.13084914689	90
4	731	71.182644388855	91
4	740	72.292698581672	92
4	744	72.538850116588	93
4	747	72.591600577453	94
4	751	72.680007464395	95
4	758	73.548982419467	96
4	764	74.136649621452	97
4	770	74.732636149498	98
4	776	75.469311618716	99
4	780	75.580674486963	100
4	786	76.095901354592	101
4	789	76.173883476942	102
4	797	77.113677296377	103
4	801	77.325011056788	104
4	805	77.498381502622	105
4	808	77.621848824701	106
4	830	81.321118967575	107
4	842	83.273830703454	108
4	846	83.420586115023	109
4	853	84.275407982921	110
4	877	88.390633076103	111
4	881	88.594153988002	112
4	887	89.166220829616	113
4	893	89.797256571362	114
4	896	89.868688596647	115
4	902	90.478705052773	116
4	907	90.720415030244	117
4	910	90.777053736094	118
4	914	90.931357577869	119
4	924	92.304428567458	120
4	929	92.753228314674	121
4	934	93.143026546992	122
4	939	93.556834919058	123
4	942	93.674212119853	124
4	945	93.676398296694	125
4	949	93.835291457933	126
4	955	94.360959650314	127
4	960	94.866910031572	128
4	966	95.332522229833	129
4	973	96.266181808471	130
4	982	97.445373683857	131
4	1001	100.592081888194	132
4	1004	100.601480596236	133
4	1015	102.159781826423	134
4	1023	103.193364974732	135
4	1029	103.711789256329	136
4	1049	107.201943454393	137
4	1052	107.286635229731	138
4	1056	107.444388331192	139
4	1068	109.277610501255	140
4	1072	109.38607851882	141
4	1077	109.726576979465	142
4	1080	109.876416494283	143
4	1084	110.069123916777	144
4	1087	110.091802085175	145
4	1098	111.636130563141	146
4	1103	112.017766460852	147
4	1107	112.127714481829	148
4	1110	112.264710448145	149
4	1114	112.46697435745	150
4	1117	112.497581229158	151
4	1124	113.176222096033	152
4	1139	115.671713298987	153
4	1145	116.294164963156	154
4	1150	116.62698111179	155
4	1165	119.021425637282	156
4	1168	119.042021165616	157
4	1173	119.494829250351	158
4	1179	120.086258003115	159
4	1183	120.18980687629	160
4	1191	121.315871223575	161
4	1200	122.387984579276	162
4	1206	123.013944152809	163
4	1210	123.182835328556	164
4	1215	123.630120102568	165
4	1219	123.775062821714	166
4	1237	126.797493128935	167
4	1242	127.228507095919	168
4	1248	127.788207848125	169
4	1252	128.100140856714	170
4	1263	129.726767473064	171
4	1279	132.290977864017	172
4	1286	133.040603688743	173
4	1290	133.156364535205	174
4	1293	133.244985036273	175
4	1303	134.641099555816	176
4	1308	135.070958689504	177
4	1315	135.901107195894	178
4	1319	136.085009647461	179
4	1323	136.171824490084	180
4	1328	136.582552515399	181
4	1331	136.65184751358	182
4	1338	137.398928980993	183
4	1354	139.945236993444	184
4	1358	140.301943736764	185
4	1362	140.46397426132	186
4	1365	140.480201041145	187
4	1369	140.544287806733	188
4	1386	143.431987848708	189
4	1390	143.66738900853	190
4	1398	144.732853479158	191
4	1405	145.520499814136	192
4	1409	145.544261675028	193
4	1414	146.137790330177	194
4	1421	146.81063252022	195
4	1428	147.705468604432	196
4	1435	148.361718837953	197
4	1450	150.836337466483	198
4	1460	152.16731316057	199
4	1464	152.411321551111	200
4	1472	153.413695008347	201
4	1476	153.613259187229	202
4	1488	155.418492155978	203
4	1498	156.819998725268	204
4	1507	157.973824654668	205
4	1511	158.164232102143	206
4	1515	158.543019937172	207
4	1523	159.418765792057	208
4	1527	159.720978525281	209
4	1531	159.845957581517	210
4	1536	160.274715107668	211
4	1540	160.445453635074	212
4	1544	160.671116895434	213
4	1547	160.723611031106	214
4	1560	162.570551786362	215
4	1568	163.608731232074	216
4	1572	163.785316319377	217
4	1575	163.934227148316	218
4	1580	164.215377774833	219
4	1583	164.314892911973	220
4	1587	164.491125763614	221
4	1591	164.682108467077	222
4	1597	165.267629503319	223
4	1601	165.513444798937	224
4	1606	165.846535853404	225
4	1609	165.872341040418	226
4	1621	167.582404560272	227
4	1625	167.802578252006	228
4	1631	168.530846493455	229
4	1638	169.359745032103	230
4	1642	169.404534242478	231
4	1650	170.474618680316	232
4	1655	170.943405373376	233
4	1659	171.135556896059	234
4	1663	171.282673997059	235
4	1670	171.992445768233	236
4	1678	173.053488322359	237
4	1690	174.878487836175	238
4	1711	178.44735854432	239
4	1717	179.03238576486	240
4	1736	182.374688688282	241
4	1741	182.725926589786	242
4	1746	183.01481344606	243
4	1749	183.024779839408	244
4	1765	185.693156101193	245
4	1775	187.019119576881	246
4	1783	188.055397774818	247
4	1792	189.327304750604	248
4	1795	189.34393181394	249
4	1799	189.406239891117	250
4	1802	189.469699722128	251
4	1806	189.610962258163	252
4	1811	190.004088878688	253
4	1820	191.369898372835	254
4	1830	192.699313508821	255
4	1836	193.322174039912	256
4	1846	194.779173861353	257
4	1851	195.102009805726	258
4	1854	195.105272758948	259
4	1858	195.222765718079	260
4	1862	195.416580681595	261
4	1865	195.494367979146	262
4	1871	196.067436163971	263
4	1877	196.683480880538	264
4	1881	196.883608469143	265
4	1889	197.812184657935	266
4	1894	198.323932381	267
5	13	1.127803725266	1
5	40	1.828914652722	2
5	54	2.032319771982	3
5	74	3.503878449948	4
5	127	6.484093232792	5
6	20	1.227903725266	1
6	42	1.929014652722	1
6	56	2.132419771982	1
6	81	3.603978449948	1
6	129	6.584193232792	1
7	23	1.328003725266	1
7	46	2.029114652722	1
7	62	2.232519771982	1
7	84	3.704078449948	1
7	137	6.684293232792	1
8	34	1.528003725266	0.4002
8	59	2.229114652722	0.4002
8	65	2.432519771982	0.4002
8	91	3.904078449948	0.4002
8	140	6.884293232792	2.076273473173
9	34	1.528003725266	1
9	59	2.229114652722	1
9	65	2.432519771982	1
9	91	3.904078449948	1
9	140	6.884293232792	1

