version 3
run FeedbackVersion-8-20240511-20:45:11-11876
attr configname FeedbackVersion
attr datetime 20240511-20:45:11
attr datetimef 20240511-204511
attr experiment FeedbackVersion
attr inifile omnetpp.ini
attr iterationvars $genInterval=0.5
attr iterationvarsd genInterval=0.5
attr iterationvarsf genInterval=0.5-
attr measurement $genInterval=0.5
attr network NetworkFV
attr processid 11876
attr repetition 0
attr replication #0
attr resultdir results
attr runnumber 8
attr seedset 8
itervar genInterval 0.5
config network NetworkFV
config sim-time-limit 200s
config NetworkFV.nodeTx.gen.generationInterval exponential(0.5)
config NetworkFV.nodeTx.gen.packetByteSize 12500
config NetworkFV.queueOne.bufferSize 200
config NetworkFV.nodeRx.queue.bufferSize 200
config NetworkFV.nodeTx.queue.bufferSize 2000000
config NetworkFV.queueZero.bufferSize 200

vector 0 NetworkFV.nodeRx.queue PacketsLost ETV
vector 1 NetworkFV.nodeRx.queue PacketsAsked ETV
vector 2 NetworkFV.queueOne bufferSize ETV
vector 3 NetworkFV.nodeTx.gen packetGen ETV
vector 4 NetworkFV.nodeTx.queue BufferSize ETV
vector 5 NetworkFV.nodeTx.queue PacketsSent ETV
vector 6 NetworkFV.queueZero bufferSize ETV
vector 7 NetworkFV.nodeRx.queue BufferSize ETV
vector 8 NetworkFV.nodeRx.sink Delay ETV
vector 9 NetworkFV.nodeRx.sink packetUsed ETV
0	1	0	1
0	6	0.2	1
0	7	0.4	1
0	8	0.6	1
0	9	0.8	1
0	10	1	1
0	19	1.2	1
1	1	0	2
1	19	1.2	1
1	27	1.233677525325	0
2	2	0	1
2	20	1.2	1
2	29	1.233677525325	1
3	11	1.033477525325	1
3	14	1.039065857794	1
3	46	2.76859561748	1
3	50	2.905445473251	1
3	58	3.922467516623	1
3	62	4.159486977546	1
3	67	4.537909405024	1
3	74	5.38557422983	1
3	78	5.518031398752	1
3	82	5.79242566381	1
3	85	5.798157797687	1
3	91	6.271575724019	1
3	95	6.553046595708	1
3	102	7.27939815991	1
3	106	7.536774288867	1
3	110	7.793793941382	1
3	115	8.163572431947	1
3	123	9.191781104633	1
3	128	9.517200370488	1
3	138	10.822016395572	1
3	143	11.227257588005	1
3	146	11.30647691584	1
3	151	11.698435375123	1
3	157	12.302974809507	1
3	164	13.018402254362	1
3	168	13.276051201545	1
3	174	13.899099323141	1
3	181	14.751704861739	1
3	187	15.23507875677	1
3	190	15.245834274718	1
3	194	15.523477164458	1
3	198	15.741036387436	1
3	202	15.911630577714	1
3	207	16.240640375117	1
3	219	18.062693612412	1
3	227	19.101678499412	1
3	231	19.304741697822	1
3	234	19.332398056982	1
3	238	19.455860776156	1
3	241	19.61132052575	1
3	245	19.645357382591	1
3	248	19.818113597066	1
3	262	21.851591427399	1
3	267	22.415900594769	1
3	271	22.484300795118	1
3	275	22.663079906348	1
3	279	22.857480367739	1
3	282	22.958356607091	1
3	285	22.995149116029	1
3	290	23.28526233928	1
3	293	23.412560061301	1
3	298	23.791125365414	1
3	303	24.041261873581	1
3	313	25.493330138225	1
3	322	26.625709959686	1
3	326	26.986100486044	1
3	330	27.198013007239	1
3	336	27.757784825573	1
3	350	29.849354394788	1
3	353	29.914242253335	1
3	356	29.928818702948	1
3	360	30.13103023123	1
3	364	30.347719326639	1
3	368	30.508135227503	1
3	372	30.747927022775	1
3	377	31.170313242344	1
3	384	31.892614348869	1
3	390	32.432196720347	1
3	399	33.829032724227	1
3	403	33.994731813961	1
3	407	34.187335015939	1
3	411	34.266590787493	1
3	415	34.549826848239	1
3	418	34.610238986335	1
3	422	34.767694192161	1
3	428	35.314927018171	1
3	435	36.122292698117	1
3	438	36.155231708351	1
3	444	36.663617197238	1
3	448	36.989886523467	1
3	451	37.025468134064	1
3	457	37.548626066619	1
3	462	38.011347907685	1
3	466	38.085604757862	1
3	473	38.879380728197	1
3	479	39.460061739553	1
3	482	39.476327550972	1
3	485	39.493074431683	1
3	489	39.796970188061	1
3	498	40.977111820586	1
3	505	41.757846677262	1
3	509	41.886203810718	1
3	523	44.1231222118	1
3	528	44.545032365903	1
3	533	44.983524761274	1
3	537	45.134927304229	1
3	540	45.154772110685	1
3	544	45.254493075102	1
3	548	45.550170201837	1
3	552	45.784538028827	1
3	556	45.888771736834	1
3	560	46.210677844505	1
3	566	46.703840876808	1
3	570	46.848003214967	1
3	573	46.969241454969	1
3	581	47.89560674269	1
3	584	47.977437183376	1
3	592	48.911880289769	1
3	597	49.29597117793	1
3	603	49.93724064321	1
3	606	49.990135834313	1
3	611	50.281854194662	1
3	617	50.938670715402	1
3	622	51.336246393841	1
3	632	52.740052150089	1
3	637	53.232648695648	1
3	648	54.667799628758	1
3	652	55.014109143818	1
3	656	55.248901806094	1
3	663	55.917849228287	1
3	668	56.370710425364	1
3	673	56.675714095754	1
3	678	57.218043218478	1
3	684	57.697585936162	1
3	688	58.054853528603	1
3	694	58.60211328103	1
3	699	58.920395186342	1
3	703	59.210565210906	1
3	706	59.215021151484	1
3	709	59.221769538238	1
3	712	59.256925197633	1
3	716	59.270053531499	1
3	720	59.555355701971	1
3	724	59.713516115182	1
3	728	59.995887496408	1
3	735	60.760352835115	1
3	739	60.863178847155	1
3	749	62.293169438321	1
3	754	62.670367339601	1
3	757	62.732724017412	1
3	762	63.189728497519	1
3	769	63.874267881242	1
3	775	64.51240428282	1
3	787	66.430378813193	1
3	791	66.613305753797	1
3	798	67.299958591882	1
3	802	67.55904777354	1
3	807	67.90121389713	1
3	814	68.766402415934	1
3	817	68.828911222637	1
3	823	69.271222896245	1
3	829	70.034331311716	1
3	835	70.647296621967	1
3	838	70.663850519234	1
3	843	71.021119945135	1
3	847	71.077602443154	1
3	854	71.963762249024	1
3	858	72.099930769904	1
3	864	72.737625819076	1
3	868	72.930736267174	1
3	876	73.936671380647	1
3	885	75.265097197959	1
3	889	75.378804633865	1
3	894	75.697412916879	1
3	898	75.874704947432	1
3	902	76.190360538603	1
3	907	76.513305365922	1
3	914	77.35609137061	1
3	919	77.696310018832	1
3	922	77.834582293111	1
3	928	78.302416079647	1
3	933	78.792527419515	1
3	940	79.646978618827	1
3	945	80.022030773524	1
3	950	80.397126456959	1
3	955	80.860498703181	1
3	965	82.260615500055	1
3	969	82.414780401768	1
3	975	83.057341849105	1
3	980	83.340575363599	1
3	983	83.439043490646	1
3	988	83.792668167249	1
3	993	84.276099012985	1
3	998	84.530975779477	1
3	1003	84.944067567692	1
3	1007	85.113542684526	1
3	1013	85.834244592703	1
3	1023	87.105385372955	1
3	1030	87.927002531138	1
3	1034	88.192385403385	1
3	1038	88.369741840781	1
3	1042	88.487714803186	1
3	1045	88.562188004819	1
3	1054	89.859861250625	1
3	1060	90.364335594956	1
3	1064	90.634142005009	1
3	1067	90.638313548797	1
3	1071	90.713558098811	1
3	1078	91.490520122698	1
3	1081	91.543050279733	1
3	1086	91.891705584955	1
3	1095	93.152693461441	1
3	1112	96.077444422331	1
3	1116	96.254236405427	1
3	1130	98.323091425375	1
3	1140	99.822136311746	1
3	1144	99.95092528643	1
3	1148	100.156692759374	1
3	1156	101.105110408094	1
3	1160	101.34923577632	1
3	1167	102.187071465048	1
3	1176	103.401794750128	1
3	1180	103.536476439025	1
3	1186	104.103028213624	1
3	1191	104.637826816415	1
3	1198	105.389438141279	1
3	1210	107.279300015221	1
3	1216	107.873500410223	1
3	1223	108.531080193699	1
3	1232	109.8834612235	1
3	1236	109.933718675057	1
3	1240	110.177735765246	1
3	1245	110.524915833046	1
3	1248	110.613746090568	1
3	1253	110.924029207433	1
3	1256	111.074091958929	1
3	1259	111.074464044645	1
3	1263	111.15629864873	1
3	1277	113.408460818982	1
3	1283	114.043740014013	1
3	1291	115.0940519202	1
3	1296	115.495549586632	1
3	1300	115.617995730792	1
3	1304	115.908507904122	1
3	1310	116.373420740334	1
3	1317	117.199845239691	1
3	1322	117.519130342572	1
3	1327	117.930578984839	1
3	1331	118.153026860799	1
3	1336	118.675230498261	1
3	1341	119.051989649388	1
3	1345	119.304388584146	1
3	1351	119.720389925583	1
3	1356	120.228257473517	1
3	1364	121.124784646256	1
3	1367	121.191170774755	1
3	1370	121.223607169098	1
3	1374	121.50648267025	1
3	1380	121.972650331325	1
3	1384	122.314467935994	1
3	1389	122.664667387206	1
3	1394	122.935123190549	1
3	1397	123.022477708772	1
3	1401	123.239730985908	1
3	1404	123.318318471678	1
3	1410	123.887560304035	1
3	1416	124.395396078721	1
3	1420	124.592731293143	1
3	1428	125.665121034079	1
3	1432	125.77453659429	1
3	1435	125.791245606883	1
3	1439	126.100489491923	1
3	1444	126.37981678505	1
3	1447	126.460659340925	1
3	1455	127.512088421785	1
3	1462	128.148741839261	1
3	1466	128.472357722726	1
3	1471	128.911417998218	1
3	1476	129.140511292761	1
3	1480	129.421200647221	1
3	1484	129.558847050385	1
3	1487	129.58299766455	1
3	1490	129.607714532002	1
3	1495	130.005088241999	1
3	1498	130.101375277972	1
3	1502	130.169015878664	1
3	1507	130.575855230488	1
3	1512	131.008053649002	1
3	1517	131.385655888385	1
3	1520	131.479064938845	1
3	1525	131.871939164834	1
3	1528	131.898877308511	1
3	1532	132.07653862723	1
3	1537	132.395386190139	1
3	1545	133.398199406438	1
3	1548	133.526424342577	1
3	1556	134.464908341623	1
3	1563	135.301305217269	1
3	1568	135.614704462243	1
3	1571	135.688904655301	1
3	1578	136.38477564172	1
3	1581	136.430157897967	1
3	1588	137.195403510356	1
3	1592	137.473118945121	1
3	1596	137.702628513309	1
3	1602	138.294041399904	1
3	1606	138.391631192878	1
3	1611	138.750077057808	1
3	1614	138.895835435211	1
3	1619	139.221125713436	1
3	1623	139.356434013059	1
3	1627	139.56524114251	1
3	1631	139.813945461261	1
3	1640	141.107286729587	1
3	1643	141.110902979417	1
3	1652	142.324733668911	1
3	1656	142.489604729246	1
3	1662	143.104938442878	1
3	1667	143.490028278301	1
3	1675	144.522515513661	1
3	1680	144.797523413305	1
3	1685	145.19557916363	1
3	1690	145.575037132648	1
3	1702	147.351150748526	1
3	1708	148.024836356393	1
3	1715	148.763495278487	1
3	1724	150.101883246535	1
3	1729	150.510263252053	1
3	1733	150.707523647606	1
3	1739	151.338206899253	1
3	1743	151.495955250923	1
3	1747	151.736101228211	1
3	1752	152.059446730445	1
3	1757	152.390333903874	1
3	1762	152.860646374881	1
3	1768	153.444786242967	1
3	1771	153.548452366825	1
3	1779	154.489248634824	1
3	1782	154.503445988297	1
3	1786	154.71925191234	1
3	1790	154.833325906563	1
3	1797	155.660464962443	1
3	1801	155.801052980947	1
3	1805	155.983558651434	1
3	1809	156.270202302293	1
3	1815	156.942912002013	1
3	1821	157.441295449844	1
3	1825	157.703880583802	1
3	1829	157.883235956942	1
3	1841	159.642148698931	1
3	1853	161.496826749162	1
3	1859	162.099797769794	1
3	1867	163.124344506167	1
3	1871	163.193550634768	1
3	1876	163.67830676886	1
3	1887	165.183312867542	1
3	1891	165.389472445576	1
3	1895	165.666924995165	1
3	1898	165.759928129246	1
3	1903	166.005415615144	1
3	1908	166.544423761422	1
3	1924	169.10165563476	1
3	1930	169.730077146505	1
3	1936	170.248578309524	1
3	1939	170.282771649737	1
3	1942	170.296472798378	1
3	1949	171.042558552299	1
3	1955	171.628962064577	1
3	1963	172.726405370825	1
3	1966	172.759075474068	1
3	1972	173.259215775155	1
3	1976	173.503592910305	1
3	1982	174.111198299338	1
3	1986	174.228363324133	1
3	1994	175.223874386939	1
3	2002	176.258667124217	1
3	2012	177.743932441144	1
3	2018	178.320315133305	1
3	2022	178.537152075157	1
3	2031	179.616726072846	1
3	2034	179.647239381281	1
3	2040	180.309909819993	1
3	2044	180.49613423516	1
3	2052	181.562016850115	1
3	2056	181.655694535044	1
3	2062	182.33632010544	1
3	2066	182.570561492021	1
3	2070	182.591792343214	1
3	2074	182.942352812112	1
3	2083	184.018682458474	1
3	2090	184.800178902887	1
3	2093	184.925762583974	1
3	2104	186.449084857018	1
3	2109	186.898511034265	1
3	2113	187.069630028674	1
3	2121	188.129590549595	1
3	2132	189.648014466595	1
3	2139	190.394666446709	1
3	2142	190.496364036155	1
3	2145	190.5510569506	1
3	2150	190.841020982071	1
3	2153	190.858298657989	1
3	2156	190.959050529456	1
3	2161	191.295111792321	1
3	2165	191.446104373763	1
3	2170	191.95425975025	1
3	2173	191.962938075927	1
3	2180	192.612536072851	1
3	2183	192.753902984727	1
3	2188	193.184994108314	1
3	2193	193.429291302507	1
3	2203	194.817467448832	1
3	2207	195.161217082981	1
3	2211	195.349265239942	1
3	2215	195.530138764415	1
3	2218	195.56709321493	1
3	2221	195.57365663481	1
3	2225	195.638673324099	1
3	2233	196.685849916032	1
3	2247	198.892247388187	1
3	2251	199.026903351378	1
3	2255	199.310596970233	1
3	2259	199.434123962424	1
4	12	1.033477525325	1
4	15	1.039065857794	1
4	47	2.76859561748	1
4	51	2.905445473251	2
4	59	3.922467516623	3
4	63	4.159486977546	4
4	68	4.537909405024	5
4	75	5.38557422983	6
4	79	5.518031398752	7
4	83	5.79242566381	8
4	86	5.798157797687	9
4	92	6.271575724019	10
4	96	6.553046595708	11
4	103	7.27939815991	12
4	107	7.536774288867	13
4	111	7.793793941382	14
4	116	8.163572431947	15
4	124	9.191781104633	16
4	129	9.517200370488	17
4	139	10.822016395572	18
4	144	11.227257588005	19
4	147	11.30647691584	20
4	152	11.698435375123	21
4	158	12.302974809507	22
4	165	13.018402254362	23
4	169	13.276051201545	24
4	175	13.899099323141	25
4	182	14.751704861739	26
4	188	15.23507875677	27
4	191	15.245834274718	28
4	195	15.523477164458	29
4	199	15.741036387436	30
4	203	15.911630577714	31
4	208	16.240640375117	32
4	220	18.062693612412	33
4	228	19.101678499412	34
4	232	19.304741697822	35
4	235	19.332398056982	36
4	239	19.455860776156	37
4	242	19.61132052575	38
4	246	19.645357382591	39
4	249	19.818113597066	40
4	263	21.851591427399	41
4	268	22.415900594769	42
4	272	22.484300795118	43
4	276	22.663079906348	44
4	280	22.857480367739	45
4	283	22.958356607091	46
4	286	22.995149116029	47
4	291	23.28526233928	48
4	294	23.412560061301	49
4	299	23.791125365414	50
4	304	24.041261873581	51
4	314	25.493330138225	52
4	323	26.625709959686	53
4	327	26.986100486044	54
4	331	27.198013007239	55
4	337	27.757784825573	56
4	351	29.849354394788	57
4	354	29.914242253335	58
4	357	29.928818702948	59
4	361	30.13103023123	60
4	365	30.347719326639	61
4	369	30.508135227503	62
4	373	30.747927022775	63
4	378	31.170313242344	64
4	385	31.892614348869	65
4	391	32.432196720347	66
4	400	33.829032724227	67
4	404	33.994731813961	68
4	408	34.187335015939	69
4	412	34.266590787493	70
4	416	34.549826848239	71
4	419	34.610238986335	72
4	423	34.767694192161	73
4	429	35.314927018171	74
4	436	36.122292698117	75
4	439	36.155231708351	76
4	445	36.663617197238	77
4	449	36.989886523467	78
4	452	37.025468134064	79
4	458	37.548626066619	80
4	463	38.011347907685	81
4	467	38.085604757862	82
4	474	38.879380728197	83
4	480	39.460061739553	84
4	483	39.476327550972	85
4	486	39.493074431683	86
4	490	39.796970188061	87
4	499	40.977111820586	88
4	506	41.757846677262	89
4	510	41.886203810718	90
4	524	44.1231222118	91
4	529	44.545032365903	92
4	534	44.983524761274	93
4	538	45.134927304229	94
4	541	45.154772110685	95
4	545	45.254493075102	96
4	549	45.550170201837	97
4	553	45.784538028827	98
4	557	45.888771736834	99
4	561	46.210677844505	100
4	567	46.703840876808	101
4	571	46.848003214967	102
4	574	46.969241454969	103
4	582	47.89560674269	104
4	585	47.977437183376	105
4	593	48.911880289769	106
4	598	49.29597117793	107
4	604	49.93724064321	108
4	607	49.990135834313	109
4	612	50.281854194662	110
4	618	50.938670715402	111
4	623	51.336246393841	112
4	633	52.740052150089	113
4	638	53.232648695648	114
4	649	54.667799628758	115
4	653	55.014109143818	116
4	657	55.248901806094	117
4	664	55.917849228287	118
4	669	56.370710425364	119
4	674	56.675714095754	120
4	679	57.218043218478	121
4	685	57.697585936162	122
4	689	58.054853528603	123
4	695	58.60211328103	124
4	700	58.920395186342	125
4	704	59.210565210906	126
4	707	59.215021151484	127
4	710	59.221769538238	128
4	713	59.256925197633	129
4	717	59.270053531499	130
4	721	59.555355701971	131
4	725	59.713516115182	132
4	729	59.995887496408	133
4	736	60.760352835115	134
4	740	60.863178847155	135
4	750	62.293169438321	136
4	755	62.670367339601	137
4	758	62.732724017412	138
4	763	63.189728497519	139
4	770	63.874267881242	140
4	776	64.51240428282	141
4	788	66.430378813193	142
4	792	66.613305753797	143
4	799	67.299958591882	144
4	803	67.55904777354	145
4	808	67.90121389713	146
4	815	68.766402415934	147
4	818	68.828911222637	148
4	824	69.271222896245	149
4	830	70.034331311716	150
4	836	70.647296621967	151
4	839	70.663850519234	152
4	844	71.021119945135	153
4	848	71.077602443154	154
4	855	71.963762249024	155
4	859	72.099930769904	156
4	865	72.737625819076	157
4	869	72.930736267174	158
4	877	73.936671380647	159
4	886	75.265097197959	160
4	890	75.378804633865	161
4	895	75.697412916879	162
4	899	75.874704947432	163
4	903	76.190360538603	164
4	908	76.513305365922	165
4	915	77.35609137061	166
4	920	77.696310018832	167
4	923	77.834582293111	168
4	929	78.302416079647	169
4	934	78.792527419515	170
4	941	79.646978618827	171
4	946	80.022030773524	172
4	951	80.397126456959	173
4	956	80.860498703181	174
4	966	82.260615500055	175
4	970	82.414780401768	176
4	976	83.057341849105	177
4	981	83.340575363599	178
4	984	83.439043490646	179
4	989	83.792668167249	180
4	994	84.276099012985	181
4	999	84.530975779477	182
4	1004	84.944067567692	183
4	1008	85.113542684526	184
4	1014	85.834244592703	185
4	1024	87.105385372955	186
4	1031	87.927002531138	187
4	1035	88.192385403385	188
4	1039	88.369741840781	189
4	1043	88.487714803186	190
4	1046	88.562188004819	191
4	1055	89.859861250625	192
4	1061	90.364335594956	193
4	1065	90.634142005009	194
4	1068	90.638313548797	195
4	1072	90.713558098811	196
4	1079	91.490520122698	197
4	1082	91.543050279733	198
4	1087	91.891705584955	199
4	1096	93.152693461441	200
4	1113	96.077444422331	201
4	1117	96.254236405427	202
4	1131	98.323091425375	203
4	1141	99.822136311746	204
4	1145	99.95092528643	205
4	1149	100.156692759374	206
4	1157	101.105110408094	207
4	1161	101.34923577632	208
4	1168	102.187071465048	209
4	1177	103.401794750128	210
4	1181	103.536476439025	211
4	1187	104.103028213624	212
4	1192	104.637826816415	213
4	1199	105.389438141279	214
4	1211	107.279300015221	215
4	1217	107.873500410223	216
4	1224	108.531080193699	217
4	1233	109.8834612235	218
4	1237	109.933718675057	219
4	1241	110.177735765246	220
4	1246	110.524915833046	221
4	1249	110.613746090568	222
4	1254	110.924029207433	223
4	1257	111.074091958929	224
4	1260	111.074464044645	225
4	1264	111.15629864873	226
4	1278	113.408460818982	227
4	1284	114.043740014013	228
4	1292	115.0940519202	229
4	1297	115.495549586632	230
4	1301	115.617995730792	231
4	1305	115.908507904122	232
4	1311	116.373420740334	233
4	1318	117.199845239691	234
4	1323	117.519130342572	235
4	1328	117.930578984839	236
4	1332	118.153026860799	237
4	1337	118.675230498261	238
4	1342	119.051989649388	239
4	1346	119.304388584146	240
4	1352	119.720389925583	241
4	1357	120.228257473517	242
4	1365	121.124784646256	243
4	1368	121.191170774755	244
4	1371	121.223607169098	245
4	1375	121.50648267025	246
4	1381	121.972650331325	247
4	1385	122.314467935994	248
4	1390	122.664667387206	249
4	1395	122.935123190549	250
4	1398	123.022477708772	251
4	1402	123.239730985908	252
4	1405	123.318318471678	253
4	1411	123.887560304035	254
4	1417	124.395396078721	255
4	1421	124.592731293143	256
4	1429	125.665121034079	257
4	1433	125.77453659429	258
4	1436	125.791245606883	259
4	1440	126.100489491923	260
4	1445	126.37981678505	261
4	1448	126.460659340925	262
4	1456	127.512088421785	263
4	1463	128.148741839261	264
4	1467	128.472357722726	265
4	1472	128.911417998218	266
4	1477	129.140511292761	267
4	1481	129.421200647221	268
4	1485	129.558847050385	269
4	1488	129.58299766455	270
4	1491	129.607714532002	271
4	1496	130.005088241999	272
4	1499	130.101375277972	273
4	1503	130.169015878664	274
4	1508	130.575855230488	275
4	1513	131.008053649002	276
4	1518	131.385655888385	277
4	1521	131.479064938845	278
4	1526	131.871939164834	279
4	1529	131.898877308511	280
4	1533	132.07653862723	281
4	1538	132.395386190139	282
4	1546	133.398199406438	283
4	1549	133.526424342577	284
4	1557	134.464908341623	285
4	1564	135.301305217269	286
4	1569	135.614704462243	287
4	1572	135.688904655301	288
4	1579	136.38477564172	289
4	1582	136.430157897967	290
4	1589	137.195403510356	291
4	1593	137.473118945121	292
4	1597	137.702628513309	293
4	1603	138.294041399904	294
4	1607	138.391631192878	295
4	1612	138.750077057808	296
4	1615	138.895835435211	297
4	1620	139.221125713436	298
4	1624	139.356434013059	299
4	1628	139.56524114251	300
4	1632	139.813945461261	301
4	1641	141.107286729587	302
4	1644	141.110902979417	303
4	1653	142.324733668911	304
4	1657	142.489604729246	305
4	1663	143.104938442878	306
4	1668	143.490028278301	307
4	1676	144.522515513661	308
4	1681	144.797523413305	309
4	1686	145.19557916363	310
4	1691	145.575037132648	311
4	1703	147.351150748526	312
4	1709	148.024836356393	313
4	1716	148.763495278487	314
4	1725	150.101883246535	315
4	1730	150.510263252053	316
4	1734	150.707523647606	317
4	1740	151.338206899253	318
4	1744	151.495955250923	319
4	1748	151.736101228211	320
4	1753	152.059446730445	321
4	1758	152.390333903874	322
4	1763	152.860646374881	323
4	1769	153.444786242967	324
4	1772	153.548452366825	325
4	1780	154.489248634824	326
4	1783	154.503445988297	327
4	1787	154.71925191234	328
4	1791	154.833325906563	329
4	1798	155.660464962443	330
4	1802	155.801052980947	331
4	1806	155.983558651434	332
4	1810	156.270202302293	333
4	1816	156.942912002013	334
4	1822	157.441295449844	335
4	1826	157.703880583802	336
4	1830	157.883235956942	337
4	1842	159.642148698931	338
4	1854	161.496826749162	339
4	1860	162.099797769794	340
4	1868	163.124344506167	341
4	1872	163.193550634768	342
4	1877	163.67830676886	343
4	1888	165.183312867542	344
4	1892	165.389472445576	345
4	1896	165.666924995165	346
4	1899	165.759928129246	347
4	1904	166.005415615144	348
4	1909	166.544423761422	349
4	1925	169.10165563476	350
4	1931	169.730077146505	351
4	1937	170.248578309524	352
4	1940	170.282771649737	353
4	1943	170.296472798378	354
4	1950	171.042558552299	355
4	1956	171.628962064577	356
4	1964	172.726405370825	357
4	1967	172.759075474068	358
4	1973	173.259215775155	359
4	1977	173.503592910305	360
4	1983	174.111198299338	361
4	1987	174.228363324133	362
4	1995	175.223874386939	363
4	2003	176.258667124217	364
4	2013	177.743932441144	365
4	2019	178.320315133305	366
4	2023	178.537152075157	367
4	2032	179.616726072846	368
4	2035	179.647239381281	369
4	2041	180.309909819993	370
4	2045	180.49613423516	371
4	2053	181.562016850115	372
4	2057	181.655694535044	373
4	2063	182.33632010544	374
4	2067	182.570561492021	375
4	2071	182.591792343214	376
4	2075	182.942352812112	377
4	2084	184.018682458474	378
4	2091	184.800178902887	379
4	2094	184.925762583974	380
4	2105	186.449084857018	381
4	2110	186.898511034265	382
4	2114	187.069630028674	383
4	2122	188.129590549595	384
4	2133	189.648014466595	385
4	2140	190.394666446709	386
4	2143	190.496364036155	387
4	2146	190.5510569506	388
4	2151	190.841020982071	389
4	2154	190.858298657989	390
4	2157	190.959050529456	391
4	2162	191.295111792321	392
4	2166	191.446104373763	393
4	2171	191.95425975025	394
4	2174	191.962938075927	395
4	2181	192.612536072851	396
4	2184	192.753902984727	397
4	2189	193.184994108314	398
4	2194	193.429291302507	399
4	2204	194.817467448832	400
4	2208	195.161217082981	401
4	2212	195.349265239942	402
4	2216	195.530138764415	403
4	2219	195.56709321493	404
4	2222	195.57365663481	405
4	2226	195.638673324099	406
4	2234	196.685849916032	407
4	2248	198.892247388187	408
4	2252	199.026903351378	409
4	2256	199.310596970233	410
4	2260	199.434123962424	411
5	13	1.033477525325	1
5	16	1.133477525325	2
6	17	1.133577525325	1
6	25	1.233577525325	1
7	27	1.233677525325	1
7	34	1.333677525325	1
8	36	1.433677525325	0.4002
8	39	1.633677525325	0.594611667531
9	36	1.433677525325	1
9	39	1.633677525325	1

