version 3
run FeedbackVersion-3-20240511-20:45:11-11876
attr configname FeedbackVersion
attr datetime 20240511-20:45:11
attr datetimef 20240511-204511
attr experiment FeedbackVersion
attr inifile omnetpp.ini
attr iterationvars $genInterval=0.25
attr iterationvarsd genInterval=0.25
attr iterationvarsf genInterval=0.25-
attr measurement $genInterval=0.25
attr network NetworkFV
attr processid 11876
attr repetition 0
attr replication #0
attr resultdir results
attr runnumber 3
attr seedset 3
itervar genInterval 0.25
config network NetworkFV
config sim-time-limit 200s
config NetworkFV.nodeTx.gen.generationInterval exponential(0.25)
config NetworkFV.nodeTx.gen.packetByteSize 12500
config NetworkFV.queueOne.bufferSize 200
config NetworkFV.nodeRx.queue.bufferSize 200
config NetworkFV.nodeTx.queue.bufferSize 2000000
config NetworkFV.queueZero.bufferSize 200

vector 0 NetworkFV.nodeRx.queue PacketsLost ETV
vector 1 NetworkFV.nodeRx.queue PacketsAsked ETV
vector 2 NetworkFV.queueOne bufferSize ETV
vector 3 NetworkFV.nodeTx.gen packetGen ETV
vector 4 NetworkFV.nodeTx.queue BufferSize ETV
vector 5 NetworkFV.nodeTx.queue PacketsSent ETV
vector 6 NetworkFV.queueZero bufferSize ETV
vector 7 NetworkFV.nodeRx.queue BufferSize ETV
vector 8 NetworkFV.nodeRx.sink Delay ETV
vector 9 NetworkFV.nodeRx.sink packetUsed ETV
0	1	0	1
0	6	0.2	1
0	15	0.4	1
0	30	0.6	1
0	46	1.0004	1
0	71	1.4008	1
0	99	2.0014	1
0	111	2.2016	1
0	124	2.602	1
0	134	2.8022	1
0	188	3.603	1
0	313	5.605	1
0	353	6.606	1
0	356	6.8062	1
0	359	7.0064	1
0	370	7.2066	1
0	504	9.4088	1
0	518	9.8092	1
0	534	10.2096	1
0	561	10.8102	1
0	573	11.0104	1
0	592	11.4108	1
0	604	11.8112	1
0	612	12.0114	1
0	630	12.612	1
0	633	12.8122	1
0	644	13.0124	1
0	663	13.4128	1
0	679	13.8132	1
0	688	14.0134	1
0	702	14.4138	1
0	715	14.8142	1
0	791	16.0154	1
0	822	16.616	1
0	878	17.4168	1
0	959	19.0184	1
0	976	19.4188	1
0	1002	20.0194	1
0	1030	20.62	1
0	1114	22.0214	1
0	1183	23.2226	1
0	1213	23.8232	1
0	1246	24.624	1
0	1265	25.0244	1
0	1294	25.625	1
0	1365	27.0264	1
0	1444	28.4278	1
0	1447	28.628	1
0	1450	28.8282	1
0	1465	29.0284	1
0	1536	30.2296	1
0	1563	30.8302	1
0	1569	31.0304	1
0	1590	31.4308	1
0	1615	32.0314	1
0	1661	32.8322	1
0	1664	33.0324	1
0	1667	33.2326	1
0	1673	33.4328	1
0	1717	34.2336	1
0	1757	35.0344	1
0	1767	35.2346	1
0	1797	35.8352	1
0	1874	37.2366	1
0	1877	37.4368	1
0	1886	37.637	1
0	1899	38.0374	1
0	1909	38.4378	1
0	1937	39.0384	1
0	1951	39.4388	1
0	1975	40.0394	1
0	1985	40.4398	1
0	1995	40.64	1
0	2017	41.0404	1
0	2032	41.4408	1
0	2051	42.0414	1
0	2058	42.2416	1
0	2069	42.642	1
0	2076	42.8422	1
0	2089	43.2426	1
0	2123	44.0434	1
0	2132	44.2436	1
0	2173	45.0444	1
0	2226	46.0454	1
0	2234	46.4458	1
0	2237	46.646	1
0	2244	46.8462	1
0	2251	47.2466	1
0	2256	47.4468	1
0	2260	47.647	1
0	2276	48.0474	1
0	2286	48.4478	1
0	2338	49.2486	1
0	2375	50.0494	1
0	2396	50.4498	1
0	2422	51.0504	1
0	2431	51.2506	1
0	2497	52.2516	1
0	2524	52.8522	1
0	2562	53.653	1
0	2565	53.8532	1
0	2568	54.0534	1
0	2571	54.2536	1
0	2576	54.4538	1
0	2577	54.654	1
0	2578	54.8542	1
0	2579	55.0544	1
0	2580	55.2546	1
0	2581	55.4548	1
0	2586	55.655	1
0	2596	55.8552	1
0	2619	56.0554	1
0	2651	56.656	1
0	2677	57.2566	1
0	2683	57.4568	1
0	2758	58.8582	1
0	2761	59.0584	1
0	2764	59.2586	1
0	2767	59.4588	1
0	2768	59.659	1
0	2775	59.8592	1
0	2786	60.2596	1
0	2787	60.4598	1
0	2797	60.66	1
0	2860	61.661	1
0	2869	61.8612	1
0	2897	62.4618	1
0	2908	62.662	1
0	2935	63.2626	1
0	2950	63.663	1
0	2960	64.0634	1
0	2961	64.2636	1
0	2966	64.4638	1
0	2967	64.664	1
0	2968	64.8642	1
0	2969	65.0644	1
0	2973	65.2646	1
0	2992	65.8652	1
0	2997	66.0654	1
0	2998	66.2656	1
0	2999	66.4658	1
0	3011	66.666	1
0	3019	66.8662	1
0	3031	67.0664	1
0	3042	67.4668	1
0	3046	67.667	1
0	3135	69.2686	1
0	3146	69.4688	1
0	3182	70.2696	1
0	3197	70.67	1
0	3248	71.671	1
0	3279	72.4718	1
0	3280	72.672	1
0	3292	72.8722	1
0	3340	73.673	1
0	3391	74.674	1
0	3405	75.0744	1
0	3439	75.8752	1
0	3457	76.2756	1
0	3470	76.676	1
0	3493	77.2766	1
0	3494	77.4768	1
0	3495	77.677	1
0	3502	77.8772	1
0	3529	78.4778	1
0	3532	78.678	1
0	3537	78.8782	1
0	3538	79.0784	1
0	3539	79.2786	1
0	3540	79.4788	1
0	3546	79.679	1
0	3577	80.2796	1
0	3595	80.68	1
0	3620	81.2806	1
0	3623	81.4808	1
0	3632	81.681	1
0	3706	83.0824	1
0	3742	83.8832	1
0	3763	84.4838	1
0	3774	84.684	1
0	3804	85.2846	1
0	3819	85.685	1
0	3829	86.0854	1
0	3847	86.4858	1
0	3942	88.0874	1
0	3953	88.4878	1
0	3967	88.8882	1
0	4010	89.689	1
0	4037	90.2896	1
0	4040	90.4898	1
0	4053	90.69	1
0	4083	91.4908	1
0	4093	91.691	1
0	4105	92.0914	1
0	4108	92.2916	1
0	4109	92.4918	1
0	4120	92.692	1
0	4127	93.0924	1
0	4131	93.2926	1
0	4147	93.693	1
0	4184	94.4938	1
0	4209	94.8942	1
0	4218	95.0944	1
0	4264	95.8952	1
0	4313	96.8962	1
0	4319	97.0964	1
0	4362	97.8972	1
0	4375	98.0974	1
0	4416	99.0984	1
0	4430	99.2986	1
0	4442	99.699	1
0	4448	99.8992	1
0	4475	100.4998	1
0	4579	102.1014	1
0	4582	102.3016	1
0	4588	102.5018	1
0	4658	103.9032	1
0	4661	104.1034	1
0	4664	104.3036	1
0	4671	104.5038	1
0	4758	105.9052	1
0	4784	106.5058	1
0	4934	108.708	1
0	4968	109.5088	1
0	4971	109.709	1
0	4974	109.9092	1
0	4980	110.1094	1
0	5019	110.9102	1
0	5094	112.1114	1
0	5137	112.9122	1
0	5154	113.3126	1
0	5193	114.1134	1
0	5254	115.5148	1
0	5257	115.715	1
0	5270	115.9152	1
0	5331	116.9162	1
0	5451	118.718	1
0	5493	119.719	1
0	5496	119.9192	1
0	5499	120.1194	1
0	5502	120.3196	1
0	5515	120.5198	1
0	5534	121.1204	1
0	5537	121.3206	1
0	5540	121.5208	1
0	5551	121.721	1
0	5596	122.722	1
0	5618	123.1224	1
0	5652	123.9232	1
0	5653	124.1234	1
0	5654	124.3236	1
0	5655	124.5238	1
0	5659	124.724	1
0	5669	125.1244	1
0	5686	125.3246	1
0	5694	125.5248	1
0	5697	125.725	1
0	5704	125.9252	1
0	5721	126.3256	1
0	5740	126.726	1
0	5746	126.9262	1
0	5795	127.9272	1
0	5850	128.9282	1
0	5861	129.3286	1
0	5903	130.1294	1
0	5946	130.9302	1
0	5954	131.1304	1
0	5977	131.731	1
0	5990	131.9312	1
0	6034	132.9322	1
0	6043	133.3326	1
0	6060	133.5328	1
0	6112	134.5338	1
0	6118	134.734	1
0	6146	135.3346	1
0	6170	135.9352	1
0	6208	136.5358	1
0	6230	137.1364	1
0	6241	137.3366	1
0	6259	137.737	1
0	6267	138.1374	1
0	6276	138.3376	1
0	6317	139.1384	1
0	6332	139.5388	1
0	6342	139.9392	1
0	6346	140.1394	1
0	6364	140.5398	1
0	6390	141.1404	1
0	6396	141.3406	1
0	6406	141.741	1
0	6407	141.9412	1
0	6408	142.1414	1
0	6415	142.3416	1
0	6429	142.742	1
0	6439	143.1424	1
0	6440	143.3426	1
0	6441	143.5428	1
0	6448	143.743	1
0	6511	144.744	1
0	6525	145.1444	1
0	6565	145.9452	1
0	6614	146.9462	1
0	6654	147.747	1
0	6709	148.748	1
0	6728	149.3486	1
0	6729	149.5488	1
0	6730	149.749	1
0	6734	149.9492	1
0	6769	150.75	1
0	6770	150.9502	1
0	6771	151.1504	1
0	6778	151.3506	1
0	6855	152.752	1
0	6905	153.753	1
0	6914	153.9532	1
0	6984	155.1544	1
0	7028	156.1554	1
0	7040	156.3556	1
0	7167	158.3576	1
0	7197	159.1584	1
0	7200	159.3586	1
0	7209	159.5588	1
0	7217	159.9592	1
0	7226	160.1594	1
0	7241	160.5598	1
0	7279	161.3606	1
0	7310	162.1614	1
0	7314	162.3616	1
0	7344	162.9622	1
0	7370	163.5628	1
0	7376	163.763	1
0	7389	164.1634	1
0	7411	164.5638	1
0	7448	165.3646	1
0	7451	165.5648	1
0	7458	165.765	1
0	7461	165.9652	1
0	7465	166.1654	1
0	7531	167.3666	1
0	7657	169.5688	1
0	7663	169.769	1
0	7792	172.1714	1
0	7795	172.3716	1
0	7799	172.5718	1
0	7820	173.1724	1
0	7824	173.3726	1
0	7834	173.773	1
0	7839	173.9732	1
0	7848	174.1734	1
0	7859	174.5738	1
0	7870	174.774	1
0	7889	175.1744	1
0	7987	176.776	1
0	7990	176.9762	1
0	8001	177.1764	1
0	8026	177.5768	1
0	8050	178.1774	1
0	8053	178.3776	1
0	8056	178.5778	1
0	8059	178.778	1
0	8060	178.9782	1
0	8065	179.1784	1
0	8066	179.3786	1
0	8073	179.5788	1
0	8080	179.9792	1
0	8081	180.1794	1
0	8082	180.3796	1
0	8087	180.5798	1
0	8088	180.78	1
0	8089	180.9802	1
0	8096	181.1804	1
0	8109	181.5808	1
0	8123	181.9812	1
0	8156	182.5818	1
0	8157	182.782	1
0	8161	182.9822	1
0	8194	183.5828	1
0	8216	184.1834	1
0	8325	185.785	1
0	8371	186.786	1
0	8374	186.9862	1
0	8377	187.1864	1
0	8380	187.3866	1
0	8389	187.5868	1
0	8506	189.5888	1
0	8529	190.1894	1
0	8539	190.3896	1
0	8579	191.1904	1
0	8594	191.3906	1
0	8611	191.791	1
0	8619	191.9912	1
0	8677	193.1924	1
0	8683	193.3926	1
0	8703	193.793	1
0	8716	194.1934	1
0	8726	194.3936	1
0	8742	194.794	1
0	8778	195.5948	1
0	8789	195.795	1
0	8808	196.1954	1
0	8869	197.1964	1
0	8892	197.797	1
0	8903	197.9972	1
0	8921	198.3976	1
0	8972	199.1984	1
1	1	0	2
1	22	0.500270597723	2
1	56	1.184550925737	4
1	91	1.781588417523	6
1	168	3.260981629165	10
1	250	4.518708060885	14
1	390	7.455097618262	22
1	592	11.4108	11
1	663	13.4128	3
1	690	14.108463756833	3
1	733	15.116824458344	5
1	780	15.796322674052	8
1	864	17.211867687697	12
1	989	19.67604207707	18
1	1170	22.928721795709	28
1	1365	27.0264	14
1	1497	29.499772872793	14
1	1649	32.470496481358	21
1	1757	35.0344	10
1	1866	37.021090612367	10
1	1937	39.0384	5
1	1997	40.656004994457	5
1	2060	42.312445891338	8
1	2158	44.691484029658	12
1	2251	47.2466	6
1	2325	49.005486836597	6
1	2381	50.176193099945	9
1	2483	52.041772668345	13
1	2571	54.2536	6
1	2581	55.4548	2
1	2611	56.03071916453	2
1	2635	56.354350567111	3
1	2667	56.863303029274	5
1	2713	57.969115431092	7
1	2775	59.8592	3
1	2808	60.807999507232	3
1	2847	61.249000292105	5
1	2889	62.199240400632	8
1	2961	64.2636	4
1	2992	65.8652	1
1	3013	66.671674827627	1
1	3033	67.084359107852	2
1	3057	67.908203376285	3
1	3089	68.315467494847	4
1	3125	68.938502630573	7
1	3208	70.901352874341	10
1	3324	73.336707072612	16
1	3470	76.676	8
1	3532	78.678	2
1	3561	79.880790460031	2
1	3584	80.478469472893	4
1	3634	81.748134692313	6
1	3693	82.737733702848	9
1	3790	84.942364029022	13
1	3928	87.864925329317	20
1	4040	90.4898	10
1	4109	92.4918	3
1	4149	93.778732685249	3
1	4200	94.671123236882	5
1	4248	95.542421655474	7
1	4303	96.507081889551	11
1	4430	99.2986	5
1	4480	100.574662219925	5
1	4528	101.122224223146	8
1	4607	102.809377451562	12
1	4742	105.614056000215	19
1	4918	108.393002098748	28
1	5019	110.9102	14
1	5163	113.415889960002	14
1	5309	116.427090637055	21
1	5502	120.3196	10
1	5596	122.722	3
1	5635	123.412512122983	3
1	5669	125.1244	1
1	5688	125.357215921587	1
1	5706	125.971159998699	2
1	5732	126.511853786844	4
1	5768	127.338495479081	6
1	5836	128.712017216771	9
1	5938	130.621740276482	13
1	6043	133.3326	7
1	6104	134.330593997215	6
1	6190	136.259895519633	10
1	6276	138.3376	5
1	6319	139.160310097182	5
1	6382	140.839523020067	7
1	6415	142.3416	3
1	6455	143.792047476731	3
1	6486	144.192764151853	5
1	6548	145.498158266072	8
1	6632	147.268594607689	13
1	6734	149.9492	6
1	6804	151.84257353664	6
1	6875	153.137520195524	9
1	6986	155.176488865369	14
1	7114	157.420485851167	21
1	7226	160.1594	11
1	7354	163.093142191532	11
1	7451	165.5648	5
1	7504	166.815811786233	5
1	7562	167.794180158787	8
1	7647	169.247584657989	12
1	7782	171.780327845372	18
1	7834	173.773	9
1	7925	175.67312005904	9
1	8009	177.345715016015	14
1	8060	178.9782	7
1	8082	180.3796	2
1	8111	181.610616540837	2
1	8147	182.37232307442	3
1	8178	183.343846099493	5
1	8235	184.538133488069	7
1	8310	185.493514986721	11
1	8389	187.5868	6
1	8457	188.767087965294	5
1	8508	189.600833863324	8
1	8603	191.559403490689	13
1	8716	194.1934	6
1	8791	195.871555582923	6
1	8853	196.839215953439	10
1	8958	198.92913516302	15
2	2	0	1
2	23	0.500270597723	1
2	58	1.184550925737	1
2	92	1.781588417523	1
2	169	3.260981629165	1
2	251	4.518708060885	1
2	391	7.455097618262	1
2	593	11.4108	1
2	664	13.4128	1
2	692	14.108463756833	1
2	734	15.116824458344	1
2	781	15.796322674052	1
2	865	17.211867687697	1
2	990	19.67604207707	1
2	1171	22.928721795709	1
2	1366	27.0264	1
2	1498	29.499772872793	1
2	1650	32.470496481358	1
2	1758	35.0344	1
2	1867	37.021090612367	1
2	1938	39.0384	1
2	1999	40.656004994457	1
2	2062	42.312445891338	1
2	2159	44.691484029658	1
2	2252	47.2466	1
2	2326	49.005486836597	1
2	2382	50.176193099945	1
2	2484	52.041772668345	1
2	2572	54.2536	1
2	2582	55.4548	1
2	2612	56.03071916453	1
2	2636	56.354350567111	1
2	2668	56.863303029274	1
2	2714	57.969115431092	1
2	2776	59.8592	1
2	2809	60.807999507232	1
2	2848	61.249000292105	1
2	2890	62.199240400632	1
2	2962	64.2636	1
2	2993	65.8652	1
2	3015	66.671674827627	1
2	3035	67.084359107852	1
2	3058	67.908203376285	1
2	3090	68.315467494847	1
2	3126	68.938502630573	1
2	3209	70.901352874341	1
2	3325	73.336707072612	1
2	3471	76.676	1
2	3533	78.678	1
2	3562	79.880790460031	1
2	3585	80.478469472893	1
2	3636	81.748134692313	1
2	3694	82.737733702848	1
2	3791	84.942364029022	1
2	3929	87.864925329317	1
2	4041	90.4898	1
2	4110	92.4918	1
2	4151	93.778732685249	1
2	4202	94.671123236882	1
2	4249	95.542421655474	1
2	4304	96.507081889551	1
2	4431	99.2986	1
2	4481	100.574662219925	1
2	4529	101.122224223146	1
2	4608	102.809377451562	1
2	4743	105.614056000215	1
2	4919	108.393002098748	1
2	5020	110.9102	1
2	5164	113.415889960002	1
2	5310	116.427090637055	1
2	5503	120.3196	1
2	5597	122.722	1
2	5637	123.412512122983	1
2	5670	125.1244	1
2	5690	125.357215921587	1
2	5708	125.971159998699	1
2	5733	126.511853786844	1
2	5769	127.338495479081	1
2	5837	128.712017216771	1
2	5939	130.621740276482	1
2	6044	133.3326	1
2	6105	134.330593997215	1
2	6191	136.259895519633	1
2	6277	138.3376	1
2	6320	139.160310097182	1
2	6383	140.839523020067	1
2	6416	142.3416	1
2	6457	143.792047476731	1
2	6487	144.192764151853	1
2	6550	145.498158266072	1
2	6633	147.268594607689	1
2	6735	149.9492	1
2	6806	151.84257353664	1
2	6876	153.137520195524	1
2	6987	155.176488865369	1
2	7115	157.420485851167	1
2	7227	160.1594	1
2	7355	163.093142191532	1
2	7452	165.5648	1
2	7505	166.815811786233	1
2	7563	167.794180158787	1
2	7648	169.247584657989	1
2	7783	171.780327845372	1
2	7835	173.773	1
2	7926	175.67312005904	1
2	8010	177.345715016015	1
2	8061	178.9782	1
2	8083	180.3796	1
2	8113	181.610616540837	1
2	8149	182.37232307442	1
2	8179	183.343846099493	1
2	8236	184.538133488069	1
2	8311	185.493514986721	1
2	8390	187.5868	1
2	8459	188.767087965294	1
2	8509	189.600833863324	1
2	8604	191.559403490689	1
2	8717	194.1934	1
2	8793	195.871555582923	1
2	8854	196.839215953439	1
2	8959	198.92913516302	1
3	7	0.200070597723	1
3	10	0.218408207214	1
3	27	0.526285168524	1
3	41	0.984350925737	1
3	47	1.070292277811	1
3	52	1.102628343184	1
3	63	1.281388417523	1
3	77	1.491980863331	1
3	100	2.050588574896	1
3	108	2.194234993599	1
3	127	2.760781629165	1
3	130	2.765513124701	1
3	132	2.799063261954	1
3	135	2.809433069138	1
3	140	2.867492664755	1
3	142	2.938710272538	1
3	144	2.951920001958	1
3	151	2.976475266317	1
3	158	3.121791686831	1
3	176	3.418508060885	1
3	179	3.42609096082	1
3	181	3.465362667007	1
3	189	3.617947383406	1
3	201	3.768852762458	1
3	219	4.030697648249	1
3	221	4.091399368028	1
3	229	4.17300068715	1
3	236	4.282202897155	1
3	257	4.56415260011	1
3	264	4.733784207306	1
3	277	4.957210395792	1
3	308	5.568539933673	1
3	311	5.574608466282	1
3	326	5.93753157867	1
3	337	6.142126475072	1
3	360	7.051181822982	1
3	363	7.126205671318	1
3	375	7.254897618262	1
3	385	7.388976726159	1
3	397	7.5901483842	1
3	401	7.673501395332	1
3	408	7.764952167598	1
3	426	8.060291388003	1
3	439	8.28113837413	1
3	448	8.42629563478	1
3	453	8.506663993214	1
3	458	8.549321853723	1
3	467	8.700884365186	1
3	480	8.897556054329	1
3	496	9.251914860797	1
3	510	9.630804734066	1
3	524	10.056152916073	1
3	527	10.147604735197	1
3	535	10.222066556684	1
3	541	10.284810212417	1
3	562	10.843693987501	1
3	570	10.96643799551	1
3	584	11.28327446358	1
3	607	11.971995666788	1
3	610	11.977203153505	1
3	634	12.909580894458	1
3	637	12.94807778886	1
3	653	13.227055815649	1
3	658	13.325429887343	1
3	680	13.908263756833	1
3	699	14.322041566039	1
3	712	14.789338134211	1
3	719	14.916624458344	1
3	729	15.035325861581	1
3	738	15.173542469944	1
3	743	15.197729952009	1
3	749	15.331218837649	1
3	768	15.596122674052	1
3	786	15.982901064497	1
3	797	16.186922364233	1
3	811	16.499483928007	1
3	819	16.611667687697	1
3	823	16.61751493032	1
3	825	16.681255574868	1
3	832	16.776119859647	1
3	841	16.906557765689	1
3	858	17.11338179742	1
3	870	17.271601980412	1
3	887	17.616339764318	1
3	891	17.694755799905	1
3	905	17.929916810201	1
3	910	18.016171443998	1
3	916	18.073007826087	1
3	925	18.225985537017	1
3	940	18.491048080085	1
3	954	18.983531530622	1
3	968	19.255216985696	1
3	979	19.47584207707	1
3	997	19.987967467776	1
3	1003	20.071307490074	1
3	1020	20.488111002695	1
3	1023	20.569535750162	1
3	1031	20.686686793654	1
3	1044	20.838255868013	1
3	1047	20.857800344016	1
3	1051	20.915282706179	1
3	1072	21.272665116589	1
3	1075	21.328882224322	1
3	1077	21.345355697933	1
3	1089	21.525760394136	1
3	1107	21.985537888396	1
3	1112	22.008355551901	1
3	1127	22.303284360988	1
3	1136	22.468495762419	1
3	1146	22.616098487024	1
3	1155	22.728521795709	1
3	1166	22.841009488796	1
3	1178	23.148491700494	1
3	1187	23.329958172	1
3	1205	23.673298976957	1
3	1214	23.826113448703	1
3	1227	24.119792140239	1
3	1241	24.532829219995	1
3	1255	24.824964883136	1
3	1258	24.920018241308	1
3	1270	25.036959822296	1
3	1286	25.501093679377	1
3	1297	25.776850287333	1
3	1306	25.944839243104	1
3	1317	26.048660786382	1
3	1328	26.242857992977	1
3	1341	26.455480150935	1
3	1355	26.892839228959	1
3	1360	26.991399003362	1
3	1374	27.175728288762	1
3	1385	27.322990427316	1
3	1388	27.36145291793	1
3	1392	27.377328729917	1
3	1400	27.467307209269	1
3	1406	27.536798046267	1
3	1428	27.948093692196	1
3	1451	28.838458196609	1
3	1454	28.93468823685	1
3	1461	29.000219177394	1
3	1463	29.005582738762	1
3	1482	29.299572872793	1
3	1493	29.464233130277	1
3	1510	29.727029509183	1
3	1513	29.733622245056	1
3	1530	30.05540572456	1
3	1537	30.231495200097	1
3	1547	30.392626651369	1
3	1566	31.017977207799	1
3	1580	31.244973399254	1
3	1583	31.302945737794	1
3	1585	31.320275064167	1
3	1610	31.970296481358	1
3	1613	31.989128851666	1
3	1619	32.070327095201	1
3	1623	32.125793195526	1
3	1630	32.174208229146	1
3	1632	32.215385912364	1
3	1668	33.374323895268	1
3	1671	33.400693010329	1
3	1687	33.695635540621	1
3	1690	33.730248226882	1
3	1709	34.07897105926	1
3	1720	34.280425609392	1
3	1723	34.311311423923	1
3	1725	34.363318153115	1
3	1732	34.385799525671	1
3	1762	35.145465967606	1
3	1775	35.419338714546	1
3	1787	35.705459671499	1
3	1792	35.805419173217	1
3	1804	36.000106155942	1
3	1813	36.112323536979	1
3	1828	36.419373349857	1
3	1837	36.606068890085	1
3	1843	36.682661687986	1
3	1854	36.820890612367	1
3	1878	37.474276896418	1
3	1893	37.902672145422	1
3	1906	38.359559836511	1
3	1916	38.571300416868	1
3	1929	38.895248893019	1
3	1948	39.427639595129	1
3	1955	39.591236600472	1
3	1970	39.994351607594	1
3	1986	40.455804994457	1
3	1992	40.563471964317	1
3	2011	40.904852195282	1
3	2024	41.275265882682	1
3	2036	41.545208047149	1
3	2052	42.112245891338	1
3	2070	42.725525984812	1
3	2081	43.11065596902	1
3	2093	43.361708122376	1
3	2097	43.445020062769	1
3	2104	43.558923216297	1
3	2124	44.092996988427	1
3	2136	44.294209247192	1
3	2143	44.491284029658	1
3	2151	44.545941398978	1
3	2168	44.98603874843	1
3	2171	45.039359423661	1
3	2177	45.105902201995	1
3	2195	45.429257739242	1
3	2199	45.485944513369	1
3	2218	45.870150231472	1
3	2238	46.664681091427	1
3	2257	47.559448550951	1
3	2268	47.922720346064	1
3	2283	48.398624644522	1
3	2287	48.450765622714	1
3	2297	48.646858932072	1
3	2308	48.805286836597	1
3	2311	48.828807059121	1
3	2321	49.003362174218	1
3	2331	49.171146593038	1
3	2336	49.218441719283	1
3	2365	49.875993099945	1
3	2368	49.964593501644	1
3	2389	50.351935922158	1
3	2394	50.430205492615	1
3	2404	50.596148330896	1
3	2423	51.141014915604	1
3	2432	51.292885465286	1
3	2442	51.467805227099	1
3	2447	51.529275812283	1
3	2461	51.741572668345	1
3	2466	51.790337265515	1
3	2472	51.895134320772	1
3	2474	51.914253000088	1
3	2491	52.149428132215	1
3	2514	52.706745973327	1
3	2517	52.738879766267	1
3	2531	52.994415263199	1
3	2534	53.00433917509	1
3	2538	53.043015475189	1
3	2587	55.696856139039	1
3	2593	55.83051916453	1
3	2600	55.908495013124	1
3	2602	55.921083953217	1
3	2607	55.995418212223	1
3	2616	56.054150567111	1
3	2622	56.135113165541	1
3	2641	56.463103029274	1
3	2646	56.535604725928	1
3	2662	56.798863521412	1
3	2680	57.368915431092	1
3	2687	57.531906327167	1
3	2718	57.982732255101	1
3	2722	58.06305248694	1
3	2727	58.102601096336	1
3	2740	58.366649638399	1
3	2769	59.714431922552	1
3	2788	60.497890513353	1
3	2794	60.607799507232	1
3	2804	60.75076233315	1
3	2819	60.948800292105	1
3	2824	60.966978588266	1
3	2832	61.136206289048	1
3	2838	61.151072539101	1
3	2840	61.18578990969	1
3	2842	61.207416698827	1
3	2863	61.699040400632	1
3	2900	62.501935963295	1
3	2903	62.563538336755	1
3	2916	62.758084373968	1
3	2932	63.192873369363	1
3	2947	63.64708489231	1
3	2970	65.238897198979	1
3	2974	65.285489696244	1
3	3000	66.471474827627	1
3	3003	66.546867707027	1
3	3008	66.589763488813	1
3	3022	66.884159107852	1
3	3028	67.043193015617	1
3	3043	67.608003376285	1
3	3062	67.915267494847	1
3	3070	68.019407281268	1
3	3077	68.123288386647	1
3	3079	68.140003207858	1
3	3096	68.438302630573	1
3	3121	68.937297806709	1
3	3136	69.282284165931	1
3	3139	69.368214131207	1
3	3160	69.792829724733	1
3	3174	70.130641079368	1
3	3188	70.601152874341	1
3	3193	70.644156685039	1
3	3195	70.665429365933	1
3	3213	70.962260274828	1
3	3218	71.054188371718	1
3	3240	71.514561789592	1
3	3251	71.720367935673	1
3	3264	72.045078105612	1
3	3281	72.676074445622	1
3	3287	72.787297842661	1
3	3290	72.812220147933	1
3	3308	73.136507072612	1
3	3314	73.266683551004	1
3	3320	73.304234416445	1
3	3332	73.497533054852	1
3	3335	73.591686555081	1
3	3352	73.853837456587	1
3	3361	73.989839470862	1
3	3368	74.082591491121	1
3	3388	74.606915559843	1
3	3402	75.067185193648	1
3	3408	75.108917414148	1
3	3418	75.280542223237	1
3	3436	75.810868219566	1
3	3449	76.114997424486	1
3	3464	76.516065637813	1
3	3478	76.800053104001	1
3	3496	77.690608595422	1
3	3506	77.934753910014	1
3	3512	78.049352917863	1
3	3541	79.580590460031	1
3	3544	79.637924811374	1
3	3550	79.681408167813	1
3	3552	79.750205053182	1
3	3569	80.178269472893	1
3	3592	80.618135340554	1
3	3596	80.708197919503	1
3	3624	81.547934692313	1
3	3627	81.575925180188	1
3	3640	81.875928678133	1
3	3646	81.960253267499	1
3	3657	82.124938275313	1
3	3672	82.437533702848	1
3	3678	82.522119617176	1
3	3683	82.5902149813	1
3	3701	83.03868724149	1
3	3717	83.337742692072	1
3	3733	83.852024805722	1
3	3736	83.858489646383	1
3	3740	83.88265360496	1
3	3764	84.542164029022	1
3	3767	84.602984480928	1
3	3775	84.715760825637	1
3	3798	85.161353382029	1
3	3813	85.563784529337	1
3	3826	86.035253547994	1
3	3837	86.353098673517	1
3	3842	86.447556171339	1
3	3855	86.678190302316	1
3	3861	86.760071508815	1
3	3866	86.82588751106	1
3	3875	86.966774960752	1
3	3886	87.113336379489	1
3	3897	87.30716794331	1
3	3912	87.564725329317	1
3	3915	87.589837040985	1
3	3936	87.971092826258	1
3	3950	88.424459368252	1
3	3964	88.819140806713	1
3	3973	89.010427773088	1
3	3983	89.130311549019	1
3	3999	89.503189513054	1
3	4007	89.634216625124	1
3	4011	89.69982947923	1
3	4016	89.727746572597	1
3	4047	90.567952579129	1
3	4054	90.71246237598	1
3	4068	91.060065390255	1
3	4084	91.541497804724	1
3	4090	91.646551337227	1
3	4114	92.518478581698	1
3	4128	93.26015619971	1
3	4139	93.578532685249	1
3	4155	93.879952734717	1
3	4164	94.011899624386	1
3	4179	94.470923236882	1
3	4185	94.508389688185	1
3	4187	94.520030891881	1
3	4189	94.525616787738	1
3	4191	94.539929154388	1
3	4196	94.602807297659	1
3	4210	94.942221655474	1
3	4216	95.052525436756	1
3	4224	95.143373524882	1
3	4242	95.525058819397	1
3	4254	95.706881889551	1
3	4262	95.856069102937	1
3	4265	95.898547544199	1
3	4277	96.060558382598	1
3	4316	97.014196409323	1
3	4325	97.195761645244	1
3	4338	97.370427762315	1
3	4346	97.485334284043	1
3	4363	97.926858789548	1
3	4368	98.002956460638	1
3	4370	98.022186925815	1
3	4391	98.428106596616	1
3	4400	98.591067336265	1
3	4419	99.168648087349	1
3	4422	99.184723918916	1
3	4427	99.296719403061	1
3	4445	99.835781537203	1
3	4467	100.374462219925	1
3	4476	100.522024223146	1
3	4485	100.613390912985	1
3	4490	100.631144083978	1
3	4495	100.71455445315	1
3	4501	100.734449566147	1
3	4503	100.794297760483	1
3	4516	100.987774655543	1
3	4533	101.124071344674	1
3	4536	101.143714858974	1
3	4538	101.177332400051	1
3	4545	101.228097884649	1
3	4585	102.465843861426	1
3	4592	102.609177451562	1
3	4603	102.751262134632	1
3	4618	102.923442796684	1
3	4631	103.163180571558	1
3	4642	103.382034901694	1
3	4665	104.348764508913	1
3	4675	104.590998034012	1
3	4678	104.677804577218	1
3	4691	104.794431614904	1
3	4700	104.945858488294	1
3	4713	105.186924678513	1
3	4722	105.313856000215	1
3	4725	105.356625645323	1
3	4748	105.745113599605	1
3	4753	105.825684903045	1
3	4767	106.065911614943	1
3	4781	106.466674044779	1
3	4792	106.690505801359	1
3	4796	106.732045807261	1
3	4798	106.765320607366	1
3	4805	106.828503279327	1
3	4807	106.836357679583	1
3	4813	106.905948481093	1
3	4816	106.971971897408	1
3	4829	107.135216756811	1
3	4831	107.138426142075	1
3	4833	107.138612591642	1
3	4841	107.218883518421	1
3	4843	107.226578580003	1
3	4883	107.938037796638	1
3	4893	108.092802098748	1
3	4899	108.173808375582	1
3	4906	108.218148056052	1
3	4908	108.237851560555	1
3	4924	108.522321221341	1
3	4929	108.602493836041	1
3	4952	108.998929779708	1
3	4977	110.066575257607	1
3	4988	110.282359546357	1
3	4997	110.419675121731	1
3	5011	110.716343426726	1
3	5028	111.04382452106	1
3	5035	111.16779154006	1
3	5050	111.406542579986	1
3	5053	111.418393115936	1
3	5055	111.468231662621	1
3	5067	111.612928173097	1
3	5083	111.953406096599	1
3	5091	112.069702036363	1
3	5100	112.183424313033	1
3	5115	112.410631002889	1
3	5127	112.785510244294	1
3	5132	112.821540826554	1
3	5149	113.215689960002	1
3	5152	113.280289686096	1
3	5171	113.531777546506	1
3	5185	113.953333547158	1
3	5198	114.310781387705	1
3	5202	114.387523274866	1
3	5218	114.64158756467	1
3	5225	114.773631467959	1
3	5240	115.039781239199	1
3	5258	115.726890637055	1
3	5261	115.727010369602	1
3	5265	115.807596852182	1
3	5277	115.99713197299	1
3	5283	116.036380223055	1
3	5285	116.08554787672	1
3	5303	116.388230209188	1
3	5323	116.754709330897	1
3	5334	116.964002145664	1
3	5337	116.970338080442	1
3	5351	117.206763998847	1
3	5354	117.223798883802	1
3	5356	117.234533810833	1
3	5364	117.333263046881	1
3	5372	117.468269545941	1
3	5385	117.687495042511	1
3	5387	117.688563934477	1
3	5393	117.715064590684	1
3	5396	117.785832923758	1
3	5409	117.96008324498	1
3	5428	118.2661749013	1
3	5444	118.669782783681	1
3	5447	118.685661736518	1
3	5449	118.703903827164	1
3	5455	118.791184529337	1
3	5479	119.24762231456	1
3	5507	120.355694515378	1
3	5520	120.648713076002	1
3	5541	121.53575114684	1
3	5544	121.568893420445	1
3	5552	121.733264303758	1
3	5564	121.923939499798	1
3	5579	122.256600859447	1
3	5593	122.72179301917	1
3	5610	122.972156997421	1
3	5622	123.212312122983	1
3	5629	123.369008330053	1
3	5656	124.670672093758	1
3	5674	125.157015921587	1
3	5680	125.258701016175	1
3	5683	125.306043072221	1
3	5698	125.770959998699	1
3	5715	126.211653786844	1
3	5722	126.341989464361	1
3	5724	126.352734482261	1
3	5743	126.838295479081	1
3	5773	127.342559984058	1
3	5787	127.740368653864	1
3	5798	128.022118962738	1
3	5803	128.050059061385	1
3	5809	128.197667953604	1
3	5826	128.511817216771	1
3	5842	128.790175294449	1
3	5856	129.23297345526	1
3	5865	129.387190651109	1
3	5879	129.638999851244	1
3	5892	130.017535446251	1
3	5900	130.121540276482	1
3	5904	130.151643047137	1
3	5906	130.204719696585	1
3	5919	130.382118845629	1
3	5932	130.591016372388	1
3	5949	131.103952627053	1
3	5952	131.110803616199	1
3	5978	131.766946768794	1
3	5981	131.780554220919	1
3	5983	131.842777382406	1
3	6005	132.26634835774	1
3	6009	132.338913138983	1
3	6028	132.772144627084	1
3	6048	133.358028884838	1
3	6051	133.363851920389	1
3	6056	133.469829466683	1
3	6058	133.521570440416	1
3	6061	133.536208909252	1
3	6079	133.816676867302	1
3	6094	134.130393997215	1
3	6115	134.727860451712	1
3	6124	134.86164808274	1
3	6140	135.176269145761	1
3	6152	135.508581529262	1
3	6165	135.897608257539	1
3	6174	136.059695519633	1
3	6177	136.082882795594	1
3	6186	136.256452526389	1
3	6198	136.397649032272	1
3	6206	136.532782127035	1
3	6231	137.147242503019	1
3	6236	137.233035874948	1
3	6251	137.594180189917	1
3	6268	138.171609992701	1
3	6271	138.229164481659	1
3	6288	138.505413320589	1
3	6292	138.571334379374	1
3	6309	138.960110097182	1
3	6329	139.526936271061	1
3	6343	140.092152012796	1
3	6354	140.431922580268	1
3	6359	140.503906086306	1
3	6370	140.639323020067	1
3	6393	141.270195213436	1
3	6409	142.191851646123	1
3	6426	142.688075622667	1
3	6442	143.591847476731	1
3	6449	143.768195570835	1
3	6452	143.782788335655	1
3	6471	143.992564151853	1
3	6480	144.186626872116	1
3	6491	144.217149637925	1
3	6508	144.714552788915	1
3	6522	145.07354565358	1
3	6534	145.297958266072	1
3	6538	145.345513940086	1
3	6562	145.913924948367	1
3	6569	146.104729412901	1
3	6579	146.303429178819	1
3	6586	146.337223021667	1
3	6604	146.79889506374	1
3	6607	146.817823133214	1
3	6620	147.068394607689	1
3	6637	147.303174083977	1
3	6651	147.694757613339	1
3	6660	147.863684218697	1
3	6663	147.874804433898	1
3	6679	148.155640797873	1
3	6684	148.235187612821	1
3	6701	148.626368506505	1
3	6712	148.874150466457	1
3	6731	149.888231980313	1
3	6745	150.115377492967	1
3	6748	150.137334241286	1
3	6772	151.153115064541	1
3	6782	151.402498471616	1
3	6794	151.64237353664	1
3	6810	151.857454474644	1
3	6822	152.069108113522	1
3	6834	152.332022760226	1
3	6847	152.641454035248	1
3	6856	152.837320195524	1
3	6862	152.934274890159	1
3	6880	153.138028683467	1
3	6889	153.27232074557	1
3	6906	153.779611737008	1
3	6918	153.991243879989	1
3	6924	154.141619179859	1
3	6930	154.190927359006	1
3	6943	154.382343698384	1
3	6958	154.682714729083	1
3	6970	154.976288865369	1
3	6978	155.125674910437	1
3	6981	155.149113881234	1
3	6993	155.282054307745	1
3	7002	155.423429904052	1
3	7029	156.274206319524	1
3	7034	156.301139993061	1
3	7036	156.315020016768	1
3	7038	156.352089889452	1
3	7054	156.672521411505	1
3	7056	156.673053367251	1
3	7075	156.920285851167	1
3	7081	156.979123552954	1
3	7088	157.110434927733	1
3	7095	157.171474785621	1
3	7097	157.216435807114	1
3	7110	157.397979713517	1
3	7121	157.511050334692	1
3	7134	157.722163953565	1
3	7137	157.796443095331	1
3	7159	158.23070577464	1
3	7170	158.464410947558	1
3	7179	158.631140096865	1
3	7201	159.412163111953	1