version 3
run BaseVersion-8-20240511-20:45:07-11874
attr configname BaseVersion
attr datetime 20240511-20:45:07
attr datetimef 20240511-204507
attr experiment BaseVersion
attr inifile omnetpp.ini
attr iterationvars $genInterval=0.5
attr iterationvarsd genInterval=0.5
attr iterationvarsf genInterval=0.5-
attr measurement $genInterval=0.5
attr network Network
attr processid 11874
attr repetition 0
attr replication #0
attr resultdir results
attr runnumber 8
attr seedset 8
itervar genInterval 0.5
config network Network
config sim-time-limit 200s
config Network.nodeTx.gen.generationInterval exponential(0.5)
config Network.nodeTx.gen.packetByteSize 12500
config Network.nodeTx.queue.bufferSize 200
config Network.nodeRx.queue.bufferSize 200
config Network.queue.bufferSize 200

vector 0 Network.nodeTx.gen packetGen ETV
vector 1 Network.nodeTx.queue bufferSize ETV
vector 2 Network.queue bufferSize ETV
vector 3 Network.nodeRx.queue bufferSize ETV
vector 4 Network.nodeRx.sink Delay ETV
vector 5 Network.nodeRx.sink packetUsed ETV
0	1	1.033477525325	1
0	4	1.039065857794	1
0	20	2.76859561748	1
0	26	2.905445473251	1
0	41	3.922467516623	1
0	50	4.159486977546	1
0	61	4.537909405024	1
0	74	5.38557422983	1
0	80	5.518031398752	1
0	93	5.79242566381	1
0	96	5.798157797687	1
0	112	6.271575724019	1
0	123	6.553046595708	1
0	136	7.27939815991	1
0	145	7.536774288867	1
0	156	7.793793941382	1
0	167	8.163572431947	1
0	180	9.191781104633	1
0	189	9.517200370488	1
0	202	10.822016395572	1
0	213	11.227257588005	1
0	216	11.30647691584	1
0	230	11.698435375123	1
0	243	12.302974809507	1
0	254	13.018402254362	1
0	263	13.276051201545	1
0	276	13.899099323141	1
0	287	14.751704861739	1
0	298	15.23507875677	1
0	301	15.245834274718	1
0	311	15.523477164458	1
0	323	15.741036387436	1
0	331	15.911630577714	1
0	345	16.240640375117	1
0	358	18.062693612412	1
0	369	19.101678499412	1
0	378	19.304741697822	1
0	381	19.332398056982	1
0	386	19.455860776156	1
0	399	19.61132052575	1
0	402	19.645357382591	1
0	415	19.818113597066	1
0	435	21.851591427399	1
0	446	22.415900594769	1
0	449	22.484300795118	1
0	459	22.663079906348	1
0	469	22.857480367739	1
0	477	22.958356607091	1
0	480	22.995149116029	1
0	497	23.28526233928	1
0	503	23.412560061301	1
0	517	23.791125365414	1
0	529	24.041261873581	1
0	543	25.493330138225	1
0	554	26.625709959686	1
0	563	26.986100486044	1
0	574	27.198013007239	1
0	587	27.757784825573	1
0	598	29.849354394788	1
0	601	29.914242253335	1
0	603	29.928818702948	1
0	613	30.13103023123	1
0	625	30.347719326639	1
0	635	30.508135227503	1
0	647	30.747927022775	1
0	659	31.170313242344	1
0	673	31.892614348869	1
0	684	32.432196720347	1
0	695	33.829032724227	1
0	701	33.994731813961	1
0	710	34.187335015939	1
0	717	34.266590787493	1
0	730	34.549826848239	1
0	733	34.610238986335	1
0	744	34.767694192161	1
0	760	35.314927018171	1
0	773	36.122292698117	1
0	776	36.155231708351	1
0	790	36.663617197238	1
0	801	36.989886523467	1
0	804	37.025468134064	1
0	820	37.548626066619	1
0	833	38.011347907685	1
0	836	38.085604757862	1
0	852	38.879380728197	1
0	863	39.460061739553	1
0	866	39.476327550972	1
0	868	39.493074431683	1
0	882	39.796970188061	1
0	900	40.977111820586	1
0	911	41.757846677262	1
0	917	41.886203810718	1
0	932	44.1231222118	1
0	943	44.545032365903	1
0	954	44.983524761274	1
0	960	45.134927304229	1
0	963	45.154772110685	1
0	971	45.254493075102	1
0	985	45.550170201837	1
0	997	45.784538028827	1
0	1003	45.888771736834	1
0	1017	46.210677844505	1
0	1029	46.703840876808	1
0	1037	46.848003214967	1
0	1046	46.969241454969	1
0	1062	47.89560674269	1
0	1065	47.977437183376	1
0	1081	48.911880289769	1
0	1090	49.29597117793	1
0	1103	49.93724064321	1
0	1106	49.990135834313	1
0	1118	50.281854194662	1
0	1132	50.938670715402	1
0	1141	51.336246393841	1
0	1154	52.740052150089	1
0	1165	53.232648695648	1
0	1176	54.667799628758	1
0	1185	55.014109143818	1
0	1196	55.248901806094	1
0	1209	55.917849228287	1
0	1220	56.370710425364	1
0	1229	56.675714095754	1
0	1242	57.218043218478	1
0	1253	57.697585936162	1
0	1262	58.054853528603	1
0	1275	58.60211328103	1
0	1284	58.920395186342	1
0	1295	59.210565210906	1
0	1298	59.215021151484	1
0	1300	59.221769538238	1
0	1302	59.256925197633	1
0	1304	59.270053531499	1
0	1320	59.555355701971	1
0	1332	59.713516115182	1
0	1344	59.995887496408	1
0	1362	60.760352835115	1
0	1370	60.863178847155	1
0	1386	62.293169438321	1
0	1395	62.670367339601	1
0	1400	62.732724017412	1
0	1414	63.189728497519	1
0	1427	63.874267881242	1
0	1438	64.51240428282	1
0	1449	66.430378813193	1
0	1455	66.613305753797	1
0	1470	67.299958591882	1
0	1479	67.55904777354	1
0	1490	67.90121389713	1
0	1503	68.766402415934	1
0	1506	68.828911222637	1
0	1520	69.271222896245	1
0	1533	70.034331311716	1
0	1544	70.647296621967	1
0	1547	70.663850519234	1
0	1559	71.021119945135	1
0	1564	71.077602443154	1
0	1581	71.963762249024	1
0	1587	72.099930769904	1
0	1602	72.737625819076	1
0	1608	72.930736267174	1
0	1623	73.936671380647	1
0	1634	75.265097197959	1
0	1640	75.378804633865	1
0	1653	75.697412916879	1
0	1661	75.874704947432	1
0	1674	76.190360538603	1
0	1685	76.513305365922	1
0	1698	77.35609137061	1
0	1707	77.696310018832	1
0	1715	77.834582293111	1
0	1730	78.302416079647	1
0	1741	78.792527419515	1
0	1752	79.646978618827	1
0	1761	80.022030773524	1
0	1772	80.397126456959	1
0	1785	80.860498703181	1
0	1796	82.260615500055	1
0	1802	82.414780401768	1
0	1817	83.057341849105	1
0	1826	83.340575363599	1
0	1829	83.439043490646	1
0	1845	83.792668167249	1
0	1858	84.276099012985	1
0	1867	84.530975779477	1
0	1880	84.944067567692	1
0	1886	85.113542684526	1
0	1901	85.834244592703	1
0	1912	87.105385372955	1
0	1923	87.927002531138	1
0	1932	88.192385403385	1
0	1940	88.369741840781	1
0	1949	88.487714803186	1
0	1952	88.562188004819	1
0	1973	89.859861250625	1
0	1984	90.364335594956	1
0	1993	90.634142005009	1
0	1996	90.638313548797	1
0	1998	90.713558098811	1
0	2022	91.490520122698	1
0	2025	91.543050279733	1
0	2039	91.891705584955	1
0	2052	93.152693461441	1
0	2063	96.077444422331	1
0	2069	96.254236405427	1
0	2084	98.323091425375	1
0	2095	99.822136311746	1
0	2101	99.95092528643	1
0	2112	100.156692759374	1
0	2126	101.105110408094	1
0	2135	101.34923577632	1
0	2148	102.187071465048	1
0	2159	103.401794750128	1
0	2165	103.536476439025	1
0	2180	104.103028213624	1
0	2191	104.637826816415	1
0	2202	105.389438141279	1
0	2213	107.279300015221	1
0	2224	107.873500410223	1
0	2235	108.531080193699	1
0	2246	109.8834612235	1
0	2249	109.933718675057	1
0	2259	110.177735765246	1
0	2273	110.524915833046	1
0	2276	110.613746090568	1
0	2290	110.924029207433	1
0	2298	111.074091958929	1
0	2301	111.074464044645	1
0	2307	111.15629864873	1
0	2330	113.408460818982	1
0	2341	114.043740014013	1
0	2352	115.0940519202	1
0	2363	115.495549586632	1
0	2369	115.617995730792	1
0	2382	115.908507904122	1
0	2395	116.373420740334	1
0	2406	117.199845239691	1
0	2415	117.519130342572	1
0	2428	117.930578984839	1
0	2437	118.153026860799	1
0	2450	118.675230498261	1
0	2459	119.051989649388	1
0	2470	119.304388584146	1
0	2483	119.720389925583	1
0	2494	120.228257473517	1
0	2505	121.124784646256	1
0	2508	121.191170774755	1
0	2510	121.223607169098	1
0	2524	121.50648267025	1
0	2540	121.972650331325	1
0	2551	122.314467935994	1
0	2562	122.664667387206	1
0	2573	122.935123190549	1
0	2576	123.022477708772	1
0	2590	123.239730985908	1
0	2593	123.318318471678	1
0	2610	123.887560304035	1
0	2623	124.395396078721	1
0	2629	124.592731293143	1
0	2644	125.665121034079	1
0	2650	125.77453659429	1
0	2653	125.791245606883	1
0	2669	126.100489491923	1
0	2679	126.37981678505	1
0	2682	126.460659340925	1
0	2701	127.512088421785	1
0	2712	128.148741839261	1
0	2721	128.472357722726	1
0	2734	128.911417998218	1
0	2743	129.140511292761	1
0	2754	129.421200647221	1
0	2762	129.558847050385	1
0	2765	129.58299766455	1
0	2767	129.607714532002	1
0	2787	130.005088241999	1
0	2792	130.101375277972	1
0	2797	130.169015878664	1
0	2813	130.575855230488	1
0	2825	131.008053649002	1
0	2837	131.385655888385	1
0	2842	131.479064938845	1
0	2856	131.871939164834	1
0	2859	131.898877308511	1
0	2871	132.07653862723	1
0	2883	132.395386190139	1
0	2897	133.398199406438	1
0	2903	133.526424342577	1
0	2918	134.464908341623	1
0	2929	135.301305217269	1
0	2938	135.614704462243	1
0	2941	135.688904655301	1
0	2959	136.38477564172	1
0	2962	136.430157897967	1
0	2978	137.195403510356	1
0	2987	137.473118945121	1
0	2998	137.702628513309	1
0	3011	138.294041399904	1
0	3014	138.391631192878	1
0	3028	138.750077057808	1
0	3036	138.895835435211	1
0	3049	139.221125713436	1
0	3057	139.356434013059	1
0	3068	139.56524114251	1
0	3078	139.813945461261	1
0	3092	141.107286729587	1
0	3095	141.110902979417	1
0	3111	142.324733668911	1
0	3117	142.489604729246	1
0	3132	143.104938442878	1
0	3141	143.490028278301	1
0	3154	144.522515513661	1
0	3163	144.797523413305	1
0	3174	145.19557916363	1
0	3185	145.575037132648	1
0	3198	147.351150748526	1
0	3209	148.024836356393	1
0	3220	148.763495278487	1
0	3231	150.101883246535	1
0	3242	150.510263252053	1
0	3248	150.707523647606	1
0	3263	151.338206899253	1
0	3269	151.495955250923	1
0	3280	151.736101228211	1
0	3292	152.059446730445	1
0	3303	152.390333903874	1
0	3316	152.860646374881	1
0	3327	153.444786242967	1
0	3333	153.548452366825	1
0	3348	154.489248634824	1
0	3351	154.503445988297	1
0	3361	154.71925191234	1
0	3369	154.833325906563	1
0	3387	155.660464962443	1
0	3393	155.801052980947	1
0	3402	155.983558651434	1
0	3416	156.270202302293	1
0	3429	156.942912002013	1
0	3440	157.441295449844	1
0	3449	157.703880583802	1
0	3457	157.883235956942	1
0	3472	159.642148698931	1
0	3483	161.496826749162	1
0	3494	162.099797769794	1
0	3505	163.124344506167	1
0	3508	163.193550634768	1
0	3522	163.67830676886	1
0	3535	165.183312867542	1
0	3544	165.389472445576	1
0	3555	165.666924995165	1
0	3558	165.759928129246	1
0	3572	166.005415615144	1
0	3586	166.544423761422	1
0	3597	169.10165563476	1
0	3608	169.730077146505	1
0	3619	170.248578309524	1
0	3622	170.282771649737	1
0	3624	170.296472798378	1
0	3644	171.042558552299	1
0	3657	171.628962064577	1
0	3668	172.726405370825	1
0	3671	172.759075474068	1
0	3685	173.259215775155	1
0	3696	173.503592910305	1
0	3709	174.111198299338	1
0	3715	174.228363324133	1
0	3730	175.223874386939	1
0	3741	176.258667124217	1
0	3752	177.743932441144	1
0	3763	178.320315133305	1
0	3772	178.537152075157	1
0	3785	179.616726072846	1
0	3788	179.647239381281	1
0	3804	180.309909819993	1
0	3810	180.49613423516	1
0	3825	181.562016850115	1
0	3828	181.655694535044	1
0	3844	182.33632010544	1
0	3853	182.570561492021	1
0	3856	182.591792343214	1
0	3870	182.942352812112	1
0	3884	184.018682458474	1
0	3895	184.800178902887	1
0	3901	184.925762583974	1
0	3916	186.449084857018	1
0	3927	186.898511034265	1
0	3933	187.069630028674	1
0	3948	188.129590549595	1
0	3959	189.648014466595	1
0	3970	190.394666446709	1
0	3976	190.496364036155	1
0	3979	190.5510569506	1
0	3995	190.841020982071	1
0	3998	190.858298657989	1
0	4003	190.959050529456	1
0	4019	191.295111792321	1
0	4027	191.446104373763	1
0	4041	191.95425975025	1
0	4044	191.962938075927	1
0	4063	192.612536072851	1
0	4069	192.753902984727	1
0	4082	193.184994108314	1
0	4093	193.429291302507	1
0	4106	194.817467448832	1
0	4115	195.161217082981	1
0	4123	195.349265239942	1
0	4132	195.530138764415	1
0	4139	195.56709321493	1
0	4141	195.57365663481	1
0	4146	195.638673324099	1
0	4172	196.685849916032	1
0	4183	198.892247388187	1
0	4189	199.026903351378	1
0	4202	199.310596970233	1
0	4208	199.434123962424	1
1	2	1.033477525325	1
1	5	1.039065857794	1
1	21	2.76859561748	1
1	27	2.905445473251	1
1	42	3.922467516623	1
1	51	4.159486977546	1
1	62	4.537909405024	1
1	75	5.38557422983	1
1	81	5.518031398752	1
1	94	5.79242566381	1
1	97	5.798157797687	1
1	113	6.271575724019	1
1	124	6.553046595708	1
1	137	7.27939815991	1
1	146	7.536774288867	1
1	157	7.793793941382	1
1	168	8.163572431947	1
1	181	9.191781104633	1
1	190	9.517200370488	1
1	203	10.822016395572	1
1	214	11.227257588005	1
1	217	11.30647691584	1
1	231	11.698435375123	1
1	244	12.302974809507	1
1	255	13.018402254362	1
1	264	13.276051201545	1
1	277	13.899099323141	1
1	288	14.751704861739	1
1	299	15.23507875677	1
1	302	15.245834274718	1
1	312	15.523477164458	1
1	324	15.741036387436	1
1	332	15.911630577714	1
1	346	16.240640375117	1
1	359	18.062693612412	1
1	370	19.101678499412	1
1	379	19.304741697822	1
1	382	19.332398056982	1
1	387	19.455860776156	1
1	400	19.61132052575	1
1	403	19.645357382591	1
1	416	19.818113597066	1
1	436	21.851591427399	1
1	447	22.415900594769	1
1	450	22.484300795118	1
1	460	22.663079906348	1
1	470	22.857480367739	1
1	478	22.958356607091	1
1	481	22.995149116029	1
1	498	23.28526233928	1
1	504	23.412560061301	1
1	518	23.791125365414	1
1	530	24.041261873581	1
1	544	25.493330138225	1
1	555	26.625709959686	1
1	564	26.986100486044	1
1	575	27.198013007239	1
1	588	27.757784825573	1
1	599	29.849354394788	1
1	602	29.914242253335	1
1	604	29.928818702948	2
1	614	30.13103023123	1
1	626	30.347719326639	1
1	636	30.508135227503	1
1	648	30.747927022775	1
1	660	31.170313242344	1
1	674	31.892614348869	1
1	685	32.432196720347	1
1	696	33.829032724227	1
1	702	33.994731813961	1
1	711	34.187335015939	1
1	718	34.266590787493	1
1	731	34.549826848239	1
1	734	34.610238986335	1
1	745	34.767694192161	1
1	761	35.314927018171	1
1	774	36.122292698117	1
1	777	36.155231708351	1
1	791	36.663617197238	1
1	802	36.989886523467	1
1	805	37.025468134064	1
1	821	37.548626066619	1
1	834	38.011347907685	1
1	837	38.085604757862	1
1	853	38.879380728197	1
1	864	39.460061739553	1
1	867	39.476327550972	1
1	869	39.493074431683	2
1	883	39.796970188061	1
1	901	40.977111820586	1
1	912	41.757846677262	1
1	918	41.886203810718	1
1	933	44.1231222118	1
1	944	44.545032365903	1
1	955	44.983524761274	1
1	961	45.134927304229	1
1	964	45.154772110685	1
1	972	45.254493075102	1
1	986	45.550170201837	1
1	998	45.784538028827	1
1	1004	45.888771736834	1
1	1018	46.210677844505	1
1	1030	46.703840876808	1
1	1038	46.848003214967	1
1	1047	46.969241454969	1
1	1063	47.89560674269	1
1	1066	47.977437183376	1
1	1082	48.911880289769	1
1	1091	49.29597117793	1
1	1104	49.93724064321	1
1	1107	49.990135834313	1
1	1119	50.281854194662	1
1	1133	50.938670715402	1
1	1142	51.336246393841	1
1	1155	52.740052150089	1
1	1166	53.232648695648	1
1	1177	54.667799628758	1
1	1186	55.014109143818	1
1	1197	55.248901806094	1
1	1210	55.917849228287	1
1	1221	56.370710425364	1
1	1230	56.675714095754	1
1	1243	57.218043218478	1
1	1254	57.697585936162	1
1	1263	58.054853528603	1
1	1276	58.60211328103	1
1	1285	58.920395186342	1
1	1296	59.210565210906	1
1	1299	59.215021151484	1
1	1301	59.221769538238	2
1	1303	59.256925197633	3
1	1305	59.270053531499	4
1	1321	59.555355701971	2
1	1333	59.713516115182	1
1	1345	59.995887496408	1
1	1363	60.760352835115	1
1	1371	60.863178847155	1
1	1387	62.293169438321	1
1	1396	62.670367339601	1
1	1401	62.732724017412	1
1	1415	63.189728497519	1
1	1428	63.874267881242	1
1	1439	64.51240428282	1
1	1450	66.430378813193	1
1	1456	66.613305753797	1
1	1471	67.299958591882	1
1	1480	67.55904777354	1
1	1491	67.90121389713	1
1	1504	68.766402415934	1
1	1507	68.828911222637	1
1	1521	69.271222896245	1
1	1534	70.034331311716	1
1	1545	70.647296621967	1
1	1548	70.663850519234	1
1	1560	71.021119945135	1
1	1565	71.077602443154	1
1	1582	71.963762249024	1
1	1588	72.099930769904	1
1	1603	72.737625819076	1
1	1609	72.930736267174	1
1	1624	73.936671380647	1
1	1635	75.265097197959	1
1	1641	75.378804633865	1
1	1654	75.697412916879	1
1	1662	75.874704947432	1
1	1675	76.190360538603	1
1	1686	76.513305365922	1
1	1699	77.35609137061	1
1	1708	77.696310018832	1
1	1716	77.834582293111	1
1	1731	78.302416079647	1
1	1742	78.792527419515	1
1	1753	79.646978618827	1
1	1762	80.022030773524	1
1	1773	80.397126456959	1
1	1786	80.860498703181	1
1	1797	82.260615500055	1
1	1803	82.414780401768	1
1	1818	83.057341849105	1
1	1827	83.340575363599	1
1	1830	83.439043490646	1
1	1846	83.792668167249	1
1	1859	84.276099012985	1
1	1868	84.530975779477	1
1	1881	84.944067567692	1
1	1887	85.113542684526	1
1	1902	85.834244592703	1
1	1913	87.105385372955	1
1	1924	87.927002531138	1
1	1933	88.192385403385	1
1	1941	88.369741840781	1
1	1950	88.487714803186	1
1	1953	88.562188004819	1
1	1974	89.859861250625	1
1	1985	90.364335594956	1
1	1994	90.634142005009	1
1	1997	90.638313548797	1
1	1999	90.713558098811	2
1	2023	91.490520122698	1
1	2026	91.543050279733	1
1	2040	91.891705584955	1
1	2053	93.152693461441	1
1	2064	96.077444422331	1
1	2070	96.254236405427	1
1	2085	98.323091425375	1
1	2096	99.822136311746	1
1	2102	99.95092528643	1
1	2113	100.156692759374	1
1	2127	101.105110408094	1
1	2136	101.34923577632	1
1	2149	102.187071465048	1
1	2160	103.401794750128	1
1	2166	103.536476439025	1
1	2181	104.103028213624	1
1	2192	104.637826816415	1
1	2203	105.389438141279	1
1	2214	107.279300015221	1
1	2225	107.873500410223	1
1	2236	108.531080193699	1
1	2247	109.8834612235	1
1	2250	109.933718675057	1
1	2260	110.177735765246	1
1	2274	110.524915833046	1
1	2277	110.613746090568	1
1	2291	110.924029207433	1
1	2299	111.074091958929	1
1	2302	111.074464044645	1
1	2308	111.15629864873	2
1	2331	113.408460818982	1
1	2342	114.043740014013	1
1	2353	115.0940519202	1
1	2364	115.495549586632	1
1	2370	115.617995730792	1
1	2383	115.908507904122	1
1	2396	116.373420740334	1
1	2407	117.199845239691	1
1	2416	117.519130342572	1
1	2429	117.930578984839	1
1	2438	118.153026860799	1
1	2451	118.675230498261	1
1	2460	119.051989649388	1
1	2471	119.304388584146	1
1	2484	119.720389925583	1
1	2495	120.228257473517	1
1	2506	121.124784646256	1
1	2509	121.191170774755	1
1	2511	121.223607169098	2
1	2525	121.50648267025	1
1	2541	121.972650331325	1
1	2552	122.314467935994	1
1	2563	122.664667387206	1
1	2574	122.935123190549	1
1	2577	123.022477708772	1
1	2591	123.239730985908	1
1	2594	123.318318471678	1
1	2611	123.887560304035	1
1	2624	124.395396078721	1
1	2630	124.592731293143	1
1	2645	125.665121034079	1
1	2651	125.77453659429	1
1	2654	125.791245606883	1
1	2670	126.100489491923	1
1	2680	126.37981678505	1
1	2683	126.460659340925	1
1	2702	127.512088421785	1
1	2713	128.148741839261	1
1	2722	128.472357722726	1
1	2735	128.911417998218	1
1	2744	129.140511292761	1
1	2755	129.421200647221	1
1	2763	129.558847050385	1
1	2766	129.58299766455	1
1	2768	129.607714532002	2
1	2788	130.005088241999	1
1	2793	130.101375277972	1
1	2798	130.169015878664	1
1	2814	130.575855230488	1
1	2826	131.008053649002	1
1	2838	131.385655888385	1
1	2843	131.479064938845	1
1	2857	131.871939164834	1
1	2860	131.898877308511	1
1	2872	132.07653862723	1
1	2884	132.395386190139	1
1	2898	133.398199406438	1
1	2904	133.526424342577	1
1	2919	134.464908341623	1
1	2930	135.301305217269	1
1	2939	135.614704462243	1
1	2942	135.688904655301	1
1	2960	136.38477564172	1
1	2963	136.430157897967	1
1	2979	137.195403510356	1
1	2988	137.473118945121	1
1	2999	137.702628513309	1
1	3012	138.294041399904	1
1	3015	138.391631192878	1
1	3029	138.750077057808	1
1	3037	138.895835435211	1
1	3050	139.221125713436	1
1	3058	139.356434013059	1
1	3069	139.56524114251	1
1	3079	139.813945461261	1
1	3093	141.107286729587	1
1	3096	141.110902979417	1
1	3112	142.324733668911	1
1	3118	142.489604729246	1
1	3133	143.104938442878	1
1	3142	143.490028278301	1
1	3155	144.522515513661	1
1	3164	144.797523413305	1
1	3175	145.19557916363	1
1	3186	145.575037132648	1
1	3199	147.351150748526	1
1	3210	148.024836356393	1
1	3221	148.763495278487	1
1	3232	150.101883246535	1
1	3243	150.510263252053	1
1	3249	150.707523647606	1
1	3264	151.338206899253	1
1	3270	151.495955250923	1
1	3281	151.736101228211	1
1	3293	152.059446730445	1
1	3304	152.390333903874	1
1	3317	152.860646374881	1
1	3328	153.444786242967	1
1	3334	153.548452366825	1
1	3349	154.489248634824	1
1	3352	154.503445988297	1
1	3362	154.71925191234	1
1	3370	154.833325906563	1
1	3388	155.660464962443	1
1	3394	155.801052980947	1
1	3403	155.983558651434	1
1	3417	156.270202302293	1
1	3430	156.942912002013	1
1	3441	157.441295449844	1
1	3450	157.703880583802	1
1	3458	157.883235956942	1
1	3473	159.642148698931	1
1	3484	161.496826749162	1
1	3495	162.099797769794	1
1	3506	163.124344506167	1
1	3509	163.193550634768	1
1	3523	163.67830676886	1
1	3536	165.183312867542	1
1	3545	165.389472445576	1
1	3556	165.666924995165	1
1	3559	165.759928129246	1
1	3573	166.005415615144	1
1	3587	166.544423761422	1
1	3598	169.10165563476	1
1	3609	169.730077146505	1
1	3620	170.248578309524	1
1	3623	170.282771649737	1
1	3625	170.296472798378	2
1	3645	171.042558552299	1
1	3658	171.628962064577	1
1	3669	172.726405370825	1
1	3672	172.759075474068	1
1	3686	173.259215775155	1
1	3697	173.503592910305	1
1	3710	174.111198299338	1
1	3716	174.228363324133	1
1	3731	175.223874386939	1
1	3742	176.258667124217	1
1	3753	177.743932441144	1
1	3764	178.320315133305	1
1	3773	178.537152075157	1
1	3786	179.616726072846	1
1	3789	179.647239381281	1
1	3805	180.309909819993	1
1	3811	180.49613423516	1
1	3826	181.562016850115	1
1	3829	181.655694535044	1
1	3845	182.33632010544	1
1	3854	182.570561492021	1
1	3857	182.591792343214	1
1	3871	182.942352812112	1
1	3885	184.018682458474	1
1	3896	184.800178902887	1
1	3902	184.925762583974	1
1	3917	186.449084857018	1
1	3928	186.898511034265	1
1	3934	187.069630028674	1
1	3949	188.129590549595	1
1	3960	189.648014466595	1
1	3971	190.394666446709	1
1	3977	190.496364036155	1
1	3980	190.5510569506	1
1	3996	190.841020982071	1
1	3999	190.858298657989	1
1	4004	190.959050529456	1
1	4020	191.295111792321	1
1	4028	191.446104373763	1
1	4042	191.95425975025	1
1	4045	191.962938075927	1
1	4064	192.612536072851	1
1	4070	192.753902984727	1
1	4083	193.184994108314	1
1	4094	193.429291302507	1
1	4107	194.817467448832	1
1	4116	195.161217082981	1
1	4124	195.349265239942	1
1	4133	195.530138764415	1
1	4140	195.56709321493	1
1	4142	195.57365663481	2
1	4147	195.638673324099	2
1	4173	196.685849916032	1
1	4184	198.892247388187	1
1	4190	199.026903351378	1
1	4203	199.310596970233	1
1	4209	199.434123962424	1
2	7	1.133577525325	1
2	10	1.233577525325	1
2	24	2.86869561748	1
2	33	3.005545473251	1
2	45	4.022567516623	1
2	54	4.259586977546	1
2	67	4.638009405024	1
2	78	5.48567422983	1
2	87	5.618131398752	1
2	99	5.89252566381	1
2	104	5.99252566381	1
2	116	6.371675724019	1
2	127	6.653146595708	1
2	140	7.37949815991	1
2	149	7.636874288867	1
2	160	7.893893941382	1
2	173	8.263672431947	1
2	184	9.291881104633	1
2	195	9.617300370488	1
2	206	10.922116395572	1
2	219	11.327357588005	1
2	222	11.427357588005	1
2	234	11.798535375123	1
2	247	12.403074809507	1
2	258	13.118502254362	1
2	267	13.376151201545	1
2	280	13.999199323141	1
2	291	14.851804861739	1
2	304	15.33517875677	1
2	307	15.43517875677	1
2	317	15.623577164458	1
2	329	15.841136387436	1
2	337	16.011730577714	1
2	349	16.340740375117	1
2	362	18.162793612412	1
2	373	19.201778499412	1
2	384	19.404841697822	1
2	391	19.504841697822	1
2	396	19.604841697822	1
2	409	19.71142052575	1
2	412	19.81142052575	1
2	423	19.918213597066	1
2	439	21.951691427399	1
2	452	22.516000594769	1
2	455	22.616000594769	1
2	465	22.763179906348	1
2	475	22.957580367739	1
2	487	23.058456607091	1
2	490	23.158456607091	1
2	501	23.38536233928	1
2	511	23.512660061301	1
2	523	23.891225365414	1
2	533	24.141361873581	1
2	547	25.593430138225	1
2	558	26.725809959686	1
2	569	27.086200486044	1
2	578	27.298113007239	1
2	591	27.857884825573	1
2	606	29.949454394788	1
2	609	30.049454394788	1
2	616	30.149454394788	1
2	620	30.249454394788	1
2	631	30.447819326639	1
2	641	30.608235227503	1
2	651	30.848027022775	1
2	665	31.270413242344	1
2	677	31.992714348869	1
2	688	32.532296720347	1
2	699	33.929132724227	1
2	708	34.094831813961	1
2	720	34.287435015939	1
2	723	34.387435015939	1
2	738	34.649926848239	1
2	741	34.749926848239	1
2	752	34.867794192161	1
2	764	35.415027018171	1
2	779	36.222392698117	1
2	782	36.322392698117	1
2	796	36.763717197238	1
2	809	37.089986523467	1
2	812	37.189986523467	1
2	826	37.648726066619	1
2	839	38.111447907685	1
2	842	38.211447907685	1
2	856	38.979480728197	1
2	871	39.560161739553	1
2	874	39.660161739553	1
2	879	39.760161739553	1
2	890	39.897070188061	1
2	904	41.077211820586	1
2	915	41.857946677262	1
2	924	41.986303810718	1
2	936	44.2232222118	1
2	947	44.645132365903	1
2	958	45.083624761274	1
2	969	45.235027304229	1
2	974	45.335027304229	1
2	980	45.435027304229	1
2	991	45.650270201837	1
2	1001	45.884638028827	1
2	1011	45.988871736834	1
2	1021	46.310777844505	1
2	1035	46.803940876808	1
2	1044	46.948103214967	1
2	1052	47.069341454969	1
2	1068	47.99570674269	1
2	1071	48.09570674269	1
2	1085	49.011980289769	1
2	1096	49.39607117793	1
2	1109	50.03734064321	1
2	1112	50.13734064321	1
2	1124	50.381954194662	1
2	1136	51.038770715402	1
2	1147	51.436346393841	1
2	1158	52.840152150089	1
2	1169	53.332748695648	1
2	1180	54.767899628758	1
2	1191	55.114209143818	1
2	1200	55.349001806094	1
2	1213	56.017949228287	1
2	1224	56.470810425364	1
2	1235	56.775814095754	1
2	1246	57.318143218478	1
2	1257	57.797685936162	1
2	1268	58.154953528603	1
2	1279	58.70221328103	1
2	1290	59.020495186342	1
2	1307	59.310665210906	1
2	1312	59.410665210906	1
2	1317	59.510665210906	1
2	1323	59.610665210906	1
2	1329	59.710665210906	1
2	1335	59.810665210906	1
2	1341	59.910665210906	1
2	1352	60.095987496408	1
2	1368	60.860452835115	1
2	1376	60.963278847155	1
2	1390	62.393269438321	1
2	1403	62.770467339601	1
2	1406	62.870467339601	1
2	1420	63.289828497519	1
2	1431	63.974367881242	1
2	1442	64.61250428282	1
2	1453	66.530478813193	1
2	1462	66.713405753797	1
2	1474	67.400058591882	1
2	1483	67.65914777354	1
2	1496	68.00131389713	1
2	1509	68.866502415934	1
2	1512	68.966502415934	1
2	1526	69.371322896245	1
2	1537	70.134431311716	1
2	1550	70.747396621967	1
2	1553	70.847396621967	1
2	1567	71.121219945135	1
2	1570	71.221219945135	1
2	1585	72.063862249024	1
2	1594	72.200030769904	1
2	1606	72.837725819076	1
2	1615	73.030836267174	1
2	1627	74.036771380647	1
2	1638	75.365197197959	1
2	1647	75.478904633865	1
2	1657	75.797512916879	1
2	1668	75.974804947432	1
2	1678	76.290460538603	1
2	1691	76.613405365922	1
2	1702	77.45619137061	1
2	1713	77.796410018832	1
2	1722	77.934682293111	1
2	1734	78.402516079647	1
2	1745	78.892627419515	1
2	1756	79.747078618827	1
2	1767	80.122130773524	1
2	1778	80.497226456959	1
2	1789	80.960598703181	1
2	1800	82.360715500055	1
2	1809	82.514880401768	1
2	1821	83.157441849105	1
2	1832	83.440675363599	1
2	1837	83.540675363599	1
2	1849	83.892768167249	1
2	1862	84.376199012985	1
2	1871	84.631075779477	1
2	1884	85.044167567692	1
2	1893	85.213642684526	1
2	1905	85.934344592703	1
2	1916	87.205485372955	1
2	1927	88.027102531138	1
2	1936	88.292485403385	1
2	1947	88.469841840781	1
2	1957	88.587814803186	1
2	1962	88.687814803186	1
2	1977	89.959961250625	1
2	1988	90.464435594956	1
2	2001	90.734242005009	1
2	2006	90.834242005009	1
2	2011	90.934242005009	1
2	2028	91.590620122698	1
2	2031	91.690620122698	1
2	2043	91.991805584955	1
2	2056	93.252793461441	1
2	2067	96.177544422331	1
2	2076	96.354336405427	1
2	2088	98.423191425375	1
2	2099	99.922236311746	1
2	2108	100.05102528643	1
2	2118	100.256792759374	1
2	2130	101.205210408094	1
2	2139	101.44933577632	1
2	2152	102.287171465048	1
2	2163	103.501894750128	1
2	2172	103.636576439025	1
2	2184	104.203128213624	1
2	2195	104.737926816415	1
2	2206	105.489538141279	1
2	2217	107.379400015221	1
2	2228	107.973600410223	1
2	2239	108.631180193699	1
2	2252	109.9835612235	1
2	2255	110.0835612235	1
2	2265	110.277835765246	1
2	2279	110.625015833046	1
2	2284	110.725015833046	1
2	2296	111.024129207433	1
2	2310	111.174191958929	1
2	2313	111.274191958929	1
2	2319	111.374191958929	1
2	2334	113.508560818982	1
2	2345	114.143840014013	1
2	2356	115.1941519202	1
2	2367	115.595649586632	1
2	2376	115.718095730792	1
2	2386	116.008607904122	1
2	2399	116.473520740334	1
2	2410	117.299945239691	1
2	2421	117.619230342572	1
2	2432	118.030678984839	1
2	2441	118.253126860799	1
2	2454	118.775330498261	1
2	2465	119.152089649388	1
2	2474	119.404488584146	1
2	2487	119.820489925583	1
2	2498	120.328357473517	1
2	2513	121.224884646256	1
2	2516	121.324884646256	1
2	2521	121.424884646256	1
2	2532	121.60658267025	1
2	2544	122.072750331325	1
2	2557	122.414567935994	1
2	2568	122.764767387206	1
2	2579	123.035223190549	1
2	2584	123.135223190549	1
2	2598	123.339830985908	1
2	2601	123.439830985908	1
2	2616	123.987660304035	1
2	2627	124.495496078721	1
2	2636	124.692831293143	1
2	2648	125.765221034079	1
2	2659	125.87463659429	1
2	2662	125.97463659429	1
2	2673	126.200589491923	1
2	2687	126.47991678505	1
2	2690	126.57991678505	1
2	2705	127.612188421785	1
2	2716	128.248841839261	1
2	2727	128.572457722726	1
2	2738	129.011517998218	1
2	2747	129.240611292761	1
2	2758	129.521300647221	1
2	2773	129.658947050385	1
2	2776	129.758947050385	1
2	2782	129.858947050385	1
2	2795	130.105188241999	1
2	2800	130.205188241999	1
2	2806	130.305188241999	1
2	2819	130.675955230488	1
2	2831	131.108153649002	1
2	2845	131.485755888385	1
2	2848	131.585755888385	1
2	2862	131.972039164834	1
2	2867	132.072039164834	1
2	2877	132.17663862723	1
2	2889	132.495486190139	1
2	2901	133.498299406438	1
2	2910	133.626524342577	1
2	2922	134.565008341623	1
2	2933	135.401405217269	1
2	2946	135.714804462243	1
2	2949	135.814804462243	1
2	2965	136.48487564172	1
2	2968	136.58487564172	1
2	2982	137.295503510356	1
2	2991	137.573218945121	1
2	3002	137.802728513309	1
2	3017	138.394141399904	1
2	3020	138.494141399904	1
2	3032	138.850177057808	1
2	3043	138.995935435211	1
2	3053	139.321225713436	1
2	3064	139.456534013059	1
2	3074	139.66534114251	1
2	3084	139.914045461261	1
2	3098	141.207386729587	1
2	3101	141.307386729587	1
2	3115	142.424833668911	1
2	3124	142.589704729246	1
2	3136	143.205038442878	1
2	3147	143.590128278301	1
2	3158	144.622615513661	1
2	3167	144.897623413305	1
2	3180	145.29567916363	1
2	3191	145.675137132648	1
2	3202	147.451250748526	1
2	3213	148.124936356393	1
2	3224	148.863595278487	1
2	3235	150.201983246535	1
2	3246	150.610363252053	1
2	3255	150.807623647606	1
2	3267	151.438306899253	1
2	3276	151.596055250923	1
2	3286	151.836201228211	1
2	3298	152.159546730445	1
2	3309	152.490433903874	1
2	3320	152.960746374881	1
2	3331	153.544886242967	1
2	3340	153.648552366825	1
2	3354	154.589348634824	1
2	3357	154.689348634824	1
2	3367	154.81935191234	1
2	3377	154.933425906563	1
2	3391	155.760564962443	1