version 3
run BaseVersion-5-20240511-20:45:07-11874
attr configname BaseVersion
attr datetime 20240511-20:45:07
attr datetimef 20240511-204507
attr experiment BaseVersion
attr inifile omnetpp.ini
attr iterationvars $genInterval=0.35
attr iterationvarsd genInterval=0.35
attr iterationvarsf genInterval=0.35-
attr measurement $genInterval=0.35
attr network Network
attr processid 11874
attr repetition 0
attr replication #0
attr resultdir results
attr runnumber 5
attr seedset 5
itervar genInterval 0.35
config network Network
config sim-time-limit 200s
config Network.nodeTx.gen.generationInterval exponential(0.35)
config Network.nodeTx.gen.packetByteSize 12500
config Network.nodeTx.queue.bufferSize 200
config Network.nodeRx.queue.bufferSize 200
config Network.queue.bufferSize 200

vector 0 Network.nodeTx.gen packetGen ETV
vector 1 Network.nodeTx.queue bufferSize ETV
vector 2 Network.queue bufferSize ETV
vector 3 Network.nodeRx.queue bufferSize ETV
vector 4 Network.nodeRx.sink Delay ETV
vector 5 Network.nodeRx.sink packetUsed ETV
0	1	0.087856992192	1
0	4	0.107723332959	1
0	20	0.823777783242	1
0	31	1.446707198619	1
0	34	1.527759485918	1
0	44	1.686009576054	1
0	60	2.563989467379	1
0	71	3.92361729734	1
0	80	4.158199226058	1
0	83	4.191139137606	1
0	97	4.522270639911	1
0	105	4.699161120275	1
0	121	5.207375288622	1
0	127	5.360384608913	1
0	140	5.616122168926	1
0	151	5.849493078192	1
0	157	5.97273320139	1
0	174	7.614523570689	1
0	177	7.687292658748	1
0	193	8.265397494041	1
0	196	8.294863175281	1
0	208	8.661760216099	1
0	222	9.131142660967	1
0	233	9.730298490325	1
0	242	9.934054186594	1
0	245	10.031278966658	1
0	250	10.091599136589	1
0	269	10.597525377366	1
0	282	11.339434011982	1
0	285	11.380575261141	1
0	290	11.492688790369	1
0	297	11.572611472865	1
0	309	11.759804295575	1
0	312	11.804186360201	1
0	319	11.927068024952	1
0	339	12.663097046349	1
0	351	13.009940641585	1
0	362	13.269520062536	1
0	373	13.573010127838	1
0	384	13.810149679565	1
0	395	14.130789489591	1
0	408	14.591490093033	1
0	414	14.699640041377	1
0	417	14.704780874439	1
0	425	14.822042602668	1
0	427	14.856347211501	1
0	433	14.958714448991	1
0	455	15.571876096645	1
0	463	15.710772984947	1
0	479	16.338223723274	1
0	484	16.392710622383	1
0	500	17.173013588239	1
0	503	17.23638381183	1
0	519	18.346026306061	1
0	530	19.508834266599	1
0	539	19.797242697141	1
0	552	20.925838695362	1
0	555	20.95905853321	1
0	560	21.03212653551	1
0	579	22.963669197701	1
0	582	22.972281591855	1
0	592	23.199411369809	1
0	597	23.279510360296	1
0	612	23.683730526241	1
0	624	24.104938602396	1
0	637	24.753804493207	1
0	648	25.282977795382	1
0	657	25.61808104735	1
0	660	25.626201098165	1
0	672	25.916089035664	1
0	684	26.217772018513	1
0	692	26.378464915345	1
0	695	26.379040147334	1
0	712	26.790007123509	1
0	724	27.043610581857	1
0	737	27.636416519095	1
0	746	27.993795371567	1
0	759	28.903404773762	1
0	770	30.388182891915	1
0	773	30.390195941243	1
0	778	30.495156170243	1
0	793	30.941394323519	1
0	807	31.509094650058	1
0	816	31.894021281637	1
0	829	32.609401624767	1
0	832	32.687399247017	1
0	848	33.583645408897	1
0	859	34.0011664475	1
0	862	34.00194228208	1
0	874	34.30176628656	1
0	884	34.523635978323	1
0	896	34.827029086004	1
0	909	36.222932756393	1
0	912	36.24627128352	1
0	922	36.424445262667	1
0	925	36.49272962711	1
0	944	37.080929595643	1
0	952	37.227170755811	1
0	965	37.503903185776	1
0	976	37.832303759415	1
0	989	38.347992472222	1
0	992	38.424118586097	1
0	1004	38.656327682267	1
0	1007	38.701685773111	1
0	1009	38.7120260708	1
0	1034	39.666983428161	1
0	1037	39.698658435819	1
0	1042	39.82902813869	1
0	1049	39.870387165521	1
0	1061	40.095456796456	1
0	1069	40.196727058094	1
0	1072	40.219207870647	1
0	1097	41.391704394648	1
0	1103	41.504424816321	1
0	1116	41.854087700512	1
0	1119	41.94374663893	1
0	1137	42.537491539682	1
0	1148	43.540466814291	1
0	1157	43.832681709932	1
0	1165	43.998459100006	1
0	1178	44.351551104924	1
0	1186	44.521073685165	1
0	1201	45.105851681506	1
0	1207	45.231690327682	1
0	1222	46.146225488028	1
0	1225	46.222201992195	1
0	1241	47.075350190629	1
0	1252	47.541899739976	1
0	1263	48.151560630723	1
0	1274	49.069065397697	1
0	1277	49.103694315169	1
0	1291	49.507156779867	1
0	1297	49.663931088675	1
0	1308	49.857132774623	1
0	1313	49.869786959262	1
0	1328	50.162219201928	1
0	1338	50.438875903205	1
0	1343	50.523591685691	1
0	1358	51.080208992983	1
0	1363	51.13999782262	1
0	1365	51.158371761929	1
0	1385	51.790736488651	1
0	1388	51.863913650683	1
0	1406	52.516553944024	1
0	1412	52.675762977097	1
0	1425	53.036939134134	1
0	1430	53.134973688025	1
0	1435	53.185425630498	1
0	1452	53.740235862259	1
0	1455	53.808297522637	1
0	1467	53.960201408329	1
0	1475	54.094601075372	1
0	1489	54.4510895663	1
0	1503	55.544724399695	1
0	1512	55.782746539651	1
0	1515	55.8726754496	1
0	1529	56.179229318657	1
0	1543	56.953972334266	1
0	1554	57.934602640466	1
0	1565	58.878563866715	1
0	1576	59.884542398286	1
0	1579	59.915673500392	1
0	1581	59.957126529581	1
0	1601	60.540942001076	1
0	1614	61.190209687543	1
0	1625	63.006913620389	1
0	1631	63.155555460363	1
0	1640	63.307798867658	1
0	1643	63.344996913631	1
0	1656	63.576614794099	1
0	1666	63.745857105585	1
0	1682	64.220212142576	1
0	1693	64.470138119813	1
0	1701	64.633395215021	1
0	1716	65.769789368397	1
0	1719	65.782316011469	1
0	1724	65.944869777612	1
0	1731	66.002849701874	1
0	1733	66.007205993856	1
0	1739	66.143062332216	1
0	1763	66.830469831271	1
0	1766	66.874221711103	1
0	1768	66.915445631443	1
0	1779	67.07147382312	1
0	1791	67.299231917781	1
0	1805	67.717831631819	1
0	1821	68.381777035081	1
0	1832	68.931759357901	1
0	1841	69.184832547747	1
0	1852	69.39164675015	1
0	1863	69.598737674457	1
0	1876	70.834868525403	1
0	1887	71.399006521856	1
0	1896	71.649189011518	1
0	1899	71.656399765385	1
0	1911	71.889403361057	1
0	1923	72.186930861826	1
0	1926	72.206143097603	1
0	1937	72.391636312236	1
0	1944	72.490617886438	1
0	1963	73.963721165301	1
0	1974	74.457321258477	1
0	1985	75.023085838082	1
0	1994	75.368714164086	1
0	1997	75.388129589806	1
0	2013	75.87057923735	1
0	2016	75.944538104378	1
0	2034	77.483787018373	1
0	2043	77.694572627711	1
0	2054	78.006577985295	1
0	2067	78.431417827279	1
0	2076	78.67851111441	1
0	2082	78.819749829671	1
0	2090	78.905494207043	1
0	2099	79.061685504042	1
0	2113	79.360406455615	1
0	2127	80.250905062129	1
0	2138	80.783909504347	1
0	2149	81.858799232583	1
0	2160	82.479428113915	1
0	2166	82.66272938845	1
0	2172	82.759275703617	1
0	2189	83.560214915202	1
0	2200	84.235984758002	1
0	2206	84.376284229242	1
0	2209	84.43013871283	1
0	2214	84.460365674451	1
0	2233	84.959691643103	1
0	2243	85.221513673933	1
0	2257	86.170435909831	1
0	2266	86.548889595108	1
0	2279	86.989436119005	1
0	2290	87.771609007724	1
0	2293	87.819567678603	1
0	2309	88.994489238629	1
0	2312	89.040154066029	1
0	2326	89.554438216888	1
0	2337	89.879817672075	1
0	2350	90.377997065433	1
0	2361	91.816590062279	1
0	2372	92.249905279959	1
0	2383	93.071841692845	1
0	2394	93.495048515223	1
0	2400	93.600925725261	1
0	2415	94.111274746333	1
0	2424	94.429127757756	1
0	2437	95.711244723435	1
0	2443	95.853515624745	1
0	2452	96.017297762419	1
0	2464	96.223690924435	1
0	2467	96.254038436513	1
0	2482	96.61643811258	1
0	2487	96.71232546147	1
0	2496	96.858644742026	1
0	2503	96.946272192234	1
0	2520	97.596851166164	1
0	2528	97.755025848024	1
0	2541	98.101417983961	1
0	2554	98.683253235285	1
0	2557	98.761434203791	1
0	2559	98.78312640527	1
0	2569	98.950983293722	1
0	2581	99.160063091182	1
0	2593	99.419522716349	1
0	2607	100.006668366454	1
0	2618	100.400449194207	1
0	2626	100.507846376226	1
0	2635	100.623435313699	1
0	2638	100.646360324601	1
0	2655	101.136404981488	1
0	2660	101.233429864273	1
0	2675	101.656645359616	1
0	2678	101.687763239452	1
0	2680	101.723096932908	1
0	2702	102.300282428136	1
0	2705	102.337932766901	1
0	2710	102.403253589721	1
0	2719	102.550796477851	1
0	2725	102.626865897252	1
0	2743	103.227047792847	1
0	2757	103.816960969917	1
0	2768	104.721905229483	1
0	2779	105.303687524756	1
0	2790	105.800493966796	1
0	2799	106.112019216477	1
0	2812	106.851442938321	1
0	2823	107.713137139962	1
0	2834	108.386936992381	1
0	2837	108.408526978876	1
0	2839	108.473931444704	1
0	2861	109.647240403752	1
0	2870	109.954818940591	1
0	2881	110.251003146664	1
0	2889	110.402150821924	1
0	2898	110.528248376892	1
0	2912	110.997913321856	1
0	2925	111.609367098765	1
0	2928	111.619656666536	1
0	2940	111.996640702406	1
0	2945	112.063107251878	1
0	2962	113.569917670167	1
0	2965	113.620227418178	1
0	2967	113.660028378997	1
0	2989	115.033275942855	1
0	2998	115.337667414249	1
0	3011	116.278860699316	1
0	3020	116.50294074187	1
0	3033	116.931665077536	1
0	3042	117.301381005277	1
0	3055	118.26372380932	1
0	3058	118.360633896876	1
0	3072	118.828342003276	1
0	3075	118.839410717996	1
0	3082	119.00928100988	1
0	3097	119.284301256015	1
0	3111	120.055854968913	1
0	3117	120.214640860001	1
0	3130	120.514938349503	1
0	3143	121.294988477064	1
0	3154	121.913867704884	1
0	3163	122.129108962546	1
0	3166	122.164167515646	1
0	3178	122.354010790428	1
0	3181	122.400681731941	1
0	3198	122.751429361496	1
0	3210	123.201464792912	1
0	3221	123.463628107795	1
0	3224	123.545148374176	1
0	3242	124.682516177748	1
0	3248	124.840064169905	1
0	3263	125.384644939961	1
0	3274	126.398260889962	1
0	3283	126.638556870158	1
0	3296	127.113058271285	1
0	3299	127.196066961006	1
0	3309	127.39138114872	1
0	3323	127.715586506139	1
0	3326	127.779108512151	1
0	3342	128.262323326942	1
0	3353	128.525411118372	1
0	3366	129.018921323477	1
0	3369	129.059383876682	1
0	3385	130.822183108456	1
0	3396	131.247818574415	1
0	3399	131.334106625018	1
0	3415	131.871299065539	1
0	3421	132.065372056286	1
0	3436	132.751129997851	1
0	3442	132.944115286242	1
0	3457	133.368104710971	1
0	3463	133.502390583823	1
0	3478	134.311869931064	1
0	3484	134.470999129899	1
0	3499	134.977496169341	1
0	3508	135.204987512864	1
0	3521	135.703861923016	1
0	3530	135.977241156957	1
0	3533	136.00524987734	1
0	3540	136.113119210442	1
0	3542	136.149656637826	1
0	3549	136.200158302572	1
0	3555	136.314141507121	1
0	3563	136.439922059738	1
0	3569	136.497823451982	1
0	3571	136.549181869076	1
0	3579	136.589936611567	1
0	3585	136.723736758028	1
0	3597	136.952020945985	1
0	3617	137.349930147228	1
0	3625	137.486701016871	1
0	3639	137.808578253451	1
0	3651	138.226685819714	1
0	3671	140.28723150251	1
0	3677	140.481412995694	1
0	3690	140.769484460499	1
0	3703	141.425108590011	1
0	3712	141.703596950029	1
0	3723	141.924438022304	1
0	3734	142.284307716159	1
0	3747	142.976163601548	1
0	3758	143.43029289601	1
0	3761	143.452317540877	1
0	3773	143.78713708802	1
0	3778	143.842297926827	1
0	3791	144.153079173533	1
0	3803	144.519057966246	1
0	3814	144.844166119641	1
0	3822	145.015369799348	1
0	3831	145.168730140463	1
0	3843	145.385898112856	1
0	3857	145.911702403418	1
0	3860	145.951369218435	1
0	3872	146.276122233357	1
0	3877	146.344583283935	1
0	3882	146.474065599203	1
0	3898	146.77343126484	1
0	3901	146.872087039769	1
0	3916	147.152318873337	1
0	3919	147.178195387265	1
0	3930	147.399684185401	1
0	3940	147.549237579479	1
0	3956	148.198636468981	1
0	3959	148.20316243187	1
0	3966	148.327411995742	1
0	3968	148.390794372729	1
0	3987	148.741786642213	1
0	3990	148.763579497282	1
0	4001	148.946227816356	1
0	4011	149.060308965986	1
0	4023	149.286532606468	1
0	4031	149.436409617916	1
0	4047	150.150193412687	1
0	4059	150.463297751634	1
0	4067	150.629273930715	1
0	4082	151.151373565047	1
0	4091	151.382689541052	1
0	4102	151.725750689856	1
0	4105	151.778695874409	1
0	4112	151.839586642215	1
0	4114	151.867040899232	1
0	4137	152.651768746313	1
0	4150	153.059532293669	1
0	4161	153.518566252578	1
0	4172	154.118868602166	1
0	4181	154.35991120333	1
0	4192	154.695540468344	1
0	4203	155.056675521075	1
0	4216	155.849125043908	1
0	4225	156.098422771513	1
0	4236	156.446910875366	1
0	4241	156.511371445995	1
0	4257	157.07524087233	1
0	4266	157.434245798521	1
0	4274	157.591577171432	1
0	4289	159.144501831833	1
0	4292	159.154338385621	1
0	4306	159.669226532446	1
0	4319	160.596634124928	1
0	4322	160.66672474918	1
0	4334	160.956227318515	1
0	4339	161.000877143555	1
0	4356	161.667183124206	1
0	4367	162.599637553511	1
0	4373	162.795856142888	1
0	4388	163.639016205574	1
0	4399	164.073276744928	1
0	4410	164.557340150597	1
0	4421	165.259157401029	1
0	4432	165.75942414737	1
0	4438	165.954374436417	1
0	4444	166.008334789883	1
0	4461	167.337112896323	1
0	4472	167.921968665935	1
0	4481	168.293059700028	1
0	4486	168.367798329877	1
0	4491	168.454950229044	1
0	4498	168.513791199253	1
0	4500	168.521487522525	1
0	4512	168.704430436633	1
0	4526	169.082964683244	1
0	4529	169.083098723747	1
0	4533	169.166518037005	1
0	4554	169.820204815816	1
0	4562	169.929887971281	1
0	4565	169.991383829488	1
0	4584	170.545856470675	1
0	4596	171.016325077237	1
0	4599	171.03784120397	1
0	4613	171.343900525318	1
0	4621	171.489260307147	1
0	4635	172.004042771073	1
0	4646	172.297891429069	1
0	4657	172.618587205772	1
0	4668	172.991119239931	1
0	4681	174.130807719531	1
0	4690	174.370721347353	1
0	4698	174.537908794886	1
0	4711	174.83428652448	1
0	4722	175.074801512504	1
0	4735	176.436367924304	1
0	4741	176.580918417408	1
0	4756	177.080011593872	1
0	4767	177.555210018317	1
0	4778	179.565638030719	1
0	4784	179.690722282531	1
0	4799	180.550944170673	1
0	4810	181.11212983231	1
0	4821	182.042483047561	1
0	4824	182.073937464853	1
0	4826	182.112274339036	1
0	4831	182.206335903862	1
0	4833	182.213276413079	1
0	4844	182.415070313926	1
0	4852	182.513839237856	1
0	4858	182.560993816834	1
0	4860	182.571929033487	1
0	4868	182.651358290497	1
0	4870	182.717705773677	1
0	4900	183.3625004016	1
0	4914	183.97810466792	1
0	4922	184.141171055096	1
0	4942	185.083879739944	1
0	4945	185.170250180928	1
0	4961	185.920956423873	1
0	4972	186.576039373638	1
0	4975	186.581531429353	1
0	4987	186.881323252731	1
0	4995	187.002677060523	1
0	5007	187.354198716183	1
0	5021	187.881161107669	1
0	5032	188.650314652998	1
0	5041	188.883630407402	1
0	5054	189.321697523906	1
0	5065	189.851216572849	1
0	5071	189.959029898447	1
0	5086	191.957436265914	1
0	5089	191.960850776258	1
0	5091	191.992783737842	1
0	5105	192.271844370662	1
0	5108	192.331620721734	1
0	5127	192.761903814883	1
0	5137	192.97699121352	1
0	5149	193.55040467462	1
0	5162	194.752179411352	1
0	5165	194.826215488455	1
0	5167	194.827935928781	1
0	5185	195.179933579357	1
0	5188	195.255067702095	1
0	5207	196.231420401314	1
0	5213	196.424433909541	1
0	5222	196.52896395015	1
0	5238	197.314278951418	1
0	5244	197.435375461003	1
0	5259	197.959071987161	1
0	5265	198.153149048334	1
0	5271	198.245860476015	1
0	5284	198.542210645196	1
0	5289	198.615270682819	1
1	2	0.087856992192	1
1	5	0.107723332959	1
1	21	0.823777783242	1
1	32	1.446707198619	1
1	35	1.527759485918	1
1	45	1.686009576054	1
1	61	2.563989467379	1
1	72	3.92361729734	1
1	81	4.158199226058	1
1	84	4.191139137606	1
1	98	4.522270639911	1
1	106	4.699161120275	1
1	122	5.207375288622	1
1	128	5.360384608913	1
1	141	5.616122168926	1
1	152	5.849493078192	1
1	158	5.97273320139	1
1	175	7.614523570689	1
1	178	7.687292658748	1
1	194	8.265397494041	1
1	197	8.294863175281	1
1	209	8.661760216099	1
1	223	9.131142660967	1
1	234	9.730298490325	1
1	243	9.934054186594	1
1	246	10.031278966658	1
1	251	10.091599136589	1
1	270	10.597525377366	1
1	283	11.339434011982	1
1	286	11.380575261141	1
1	291	11.492688790369	1
1	298	11.572611472865	1
1	310	11.759804295575	1
1	313	11.804186360201	1
1	320	11.927068024952	1
1	340	12.663097046349	1
1	352	13.009940641585	1
1	363	13.269520062536	1
1	374	13.573010127838	1
1	385	13.810149679565	1
1	396	14.130789489591	1
1	409	14.591490093033	1
1	415	14.699640041377	1
1	418	14.704780874439	1
1	426	14.822042602668	1
1	428	14.856347211501	2
1	434	14.958714448991	2
1	456	15.571876096645	1
1	464	15.710772984947	1
1	480	16.338223723274	1
1	485	16.392710622383	1
1	501	17.173013588239	1
1	504	17.23638381183	1
1	520	18.346026306061	1
1	531	19.508834266599	1
1	540	19.797242697141	1
1	553	20.925838695362	1
1	556	20.95905853321	1
1	561	21.03212653551	1
1	580	22.963669197701	1
1	583	22.972281591855	1
1	593	23.199411369809	1
1	598	23.279510360296	1
1	613	23.683730526241	1
1	625	24.104938602396	1
1	638	24.753804493207	1
1	649	25.282977795382	1
1	658	25.61808104735	1
1	661	25.626201098165	1
1	673	25.916089035664	1
1	685	26.217772018513	1
1	693	26.378464915345	1
1	696	26.379040147334	1
1	713	26.790007123509	1
1	725	27.043610581857	1
1	738	27.636416519095	1
1	747	27.993795371567	1
1	760	28.903404773762	1
1	771	30.388182891915	1
1	774	30.390195941243	1
1	779	30.495156170243	1
1	794	30.941394323519	1
1	808	31.509094650058	1
1	817	31.894021281637	1
1	830	32.609401624767	1
1	833	32.687399247017	1
1	849	33.583645408897	1
1	860	34.0011664475	1
1	863	34.00194228208	1
1	875	34.30176628656	1
1	885	34.523635978323	1
1	897	34.827029086004	1
1	910	36.222932756393	1
1	913	36.24627128352	1
1	923	36.424445262667	1
1	926	36.49272962711	1
1	945	37.080929595643	1
1	953	37.227170755811	1
1	966	37.503903185776	1
1	977	37.832303759415	1
1	990	38.347992472222	1
1	993	38.424118586097	1
1	1005	38.656327682267	1
1	1008	38.701685773111	1
1	1010	38.7120260708	2
1	1035	39.666983428161	1
1	1038	39.698658435819	1
1	1043	39.82902813869	1
1	1050	39.870387165521	1
1	1062	40.095456796456	1
1	1070	40.196727058094	1
1	1073	40.219207870647	1
1	1098	41.391704394648	1
1	1104	41.504424816321	1
1	1117	41.854087700512	1
1	1120	41.94374663893	1
1	1138	42.537491539682	1
1	1149	43.540466814291	1
1	1158	43.832681709932	1
1	1166	43.998459100006	1
1	1179	44.351551104924	1
1	1187	44.521073685165	1
1	1202	45.105851681506	1
1	1208	45.231690327682	1
1	1223	46.146225488028	1
1	1226	46.222201992195	1
1	1242	47.075350190629	1
1	1253	47.541899739976	1
1	1264	48.151560630723	1
1	1275	49.069065397697	1
1	1278	49.103694315169	1
1	1292	49.507156779867	1
1	1298	49.663931088675	1
1	1309	49.857132774623	1
1	1314	49.869786959262	1
1	1329	50.162219201928	1
1	1339	50.438875903205	1
1	1344	50.523591685691	1
1	1359	51.080208992983	1
1	1364	51.13999782262	1
1	1366	51.158371761929	2
1	1386	51.790736488651	1
1	1389	51.863913650683	1
1	1407	52.516553944024	1
1	1413	52.675762977097	1
1	1426	53.036939134134	1
1	1431	53.134973688025	1
1	1436	53.185425630498	1
1	1453	53.740235862259	1
1	1456	53.808297522637	1
1	1468	53.960201408329	1
1	1476	54.094601075372	1
1	1490	54.4510895663	1
1	1504	55.544724399695	1
1	1513	55.782746539651	1
1	1516	55.8726754496	1
1	1530	56.179229318657	1
1	1544	56.953972334266	1
1	1555	57.934602640466	1
1	1566	58.878563866715	1
1	1577	59.884542398286	1
1	1580	59.915673500392	1
1	1582	59.957126529581	2
1	1602	60.540942001076	1
1	1615	61.190209687543	1
1	1626	63.006913620389	1
1	1632	63.155555460363	1
1	1641	63.307798867658	1
1	1644	63.344996913631	1
1	1657	63.576614794099	1
1	1667	63.745857105585	1
1	1683	64.220212142576	1
1	1694	64.470138119813	1
1	1702	64.633395215021	1
1	1717	65.769789368397	1
1	1720	65.782316011469	1
1	1725	65.944869777612	1
1	1732	66.002849701874	1
1	1734	66.007205993856	2
1	1740	66.143062332216	2
1	1764	66.830469831271	1
1	1767	66.874221711103	1
1	1769	66.915445631443	2
1	1780	67.07147382312	1
1	1792	67.299231917781	1
1	1806	67.717831631819	1
1	1822	68.381777035081	1
1	1833	68.931759357901	1
1	1842	69.184832547747	1
1	1853	69.39164675015	1
1	1864	69.598737674457	1
1	1877	70.834868525403	1
1	1888	71.399006521856	1
1	1897	71.649189011518	1
1	1900	71.656399765385	1
1	1912	71.889403361057	1
1	1924	72.186930861826	1
1	1927	72.206143097603	1
1	1938	72.391636312236	1
1	1945	72.490617886438	1
1	1964	73.963721165301	1
1	1975	74.457321258477	1
1	1986	75.023085838082	1
1	1995	75.368714164086	1
1	1998	75.388129589806	1
1	2014	75.87057923735	1
1	2017	75.944538104378	1
1	2035	77.483787018373	1
1	2044	77.694572627711	1
1	2055	78.006577985295	1
1	2068	78.431417827279	1
1	2077	78.67851111441	1
1	2083	78.819749829671	1
1	2091	78.905494207043	1
1	2100	79.061685504042	1
1	2114	79.360406455615	1
1	2128	80.250905062129	1
1	2139	80.783909504347	1
1	2150	81.858799232583	1
1	2161	82.479428113915	1
1	2167	82.66272938845	1
1	2173	82.759275703617	1
1	2190	83.560214915202	1
1	2201	84.235984758002	1
1	2207	84.376284229242	1
1	2210	84.43013871283	1
1	2215	84.460365674451	2
1	2234	84.959691643103	1
1	2244	85.221513673933	1
1	2258	86.170435909831	1
1	2267	86.548889595108	1
1	2280	86.989436119005	1
1	2291	87.771609007724	1
1	2294	87.819567678603	1
1	2310	88.994489238629	1
1	2313	89.040154066029	1
1	2327	89.554438216888	1
1	2338	89.879817672075	1
1	2351	90.377997065433	1
1	2362	91.816590062279	1
1	2373	92.249905279959	1
1	2384	93.071841692845	1
1	2395	93.495048515223	1
1	2401	93.600925725261	1
1	2416	94.111274746333	1
1	2425	94.429127757756	1
1	2438	95.711244723435	1
1	2444	95.853515624745	1
1	2453	96.017297762419	1
1	2465	96.223690924435	1
1	2468	96.254038436513	1
1	2483	96.61643811258	1
1	2488	96.71232546147	1
1	2497	96.858644742026	1
1	2504	96.946272192234	1
1	2521	97.596851166164	1
1	2529	97.755025848024	1
1	2542	98.101417983961	1
1	2555	98.683253235285	1
1	2558	98.761434203791	1
1	2560	98.78312640527	2
1	2570	98.950983293722	1
1	2582	99.160063091182	1
1	2594	99.419522716349	1
1	2608	100.006668366454	1
1	2619	100.400449194207	1
1	2627	100.507846376226	1
1	2636	100.623435313699	1
1	2639	100.646360324601	1
1	2656	101.136404981488	1
1	2661	101.233429864273	1
1	2676	101.656645359616	1
1	2679	101.687763239452	1
1	2681	101.723096932908	2
1	2703	102.300282428136	1
1	2706	102.337932766901	1
1	2711	102.403253589721	1
1	2720	102.550796477851	1
1	2726	102.626865897252	1
1	2744	103.227047792847	1
1	2758	103.816960969917	1
1	2769	104.721905229483	1
1	2780	105.303687524756	1
1	2791	105.800493966796	1
1	2800	106.112019216477	1
1	2813	106.851442938321	1
1	2824	107.713137139962	1
1	2835	108.386936992381	1
1	2838	108.408526978876	1
1	2840	108.473931444704	2
1	2862	109.647240403752	1
1	2871	109.954818940591	1
1	2882	110.251003146664	1
1	2890	110.402150821924	1
1	2899	110.528248376892	1
1	2913	110.997913321856	1
1	2926	111.609367098765	1
1	2929	111.619656666536	1
1	2941	111.996640702406	1
1	2946	112.063107251878	1
1	2963	113.569917670167	1
1	2966	113.620227418178	1
1	2968	113.660028378997	2
1	2990	115.033275942855	1
1	2999	115.337667414249	1
1	3012	116.278860699316	1
1	3021	116.50294074187	1
1	3034	116.931665077536	1
1	3043	117.301381005277	1
1	3056	118.26372380932	1
1	3059	118.360633896876	1
1	3073	118.828342003276	1
1	3076	118.839410717996	1
1	3083	119.00928100988	1
1	3098	119.284301256015	1
1	3112	120.055854968913	1
1	3118	120.214640860001	1
1	3131	120.514938349503	1
1	3144	121.294988477064	1
1	3155	121.913867704884	1
1	3164	122.129108962546	1
1	3167	122.164167515646	1
1	3179	122.354010790428	1
1	3182	122.400681731941	1
1	3199	122.751429361496	1
1	3211	123.201464792912	1
1	3222	123.463628107795	1
1	3225	123.545148374176	1
1	3243	124.682516177748	1
1	3249	124.840064169905	1
1	3264	125.384644939961	1
1	3275	126.398260889962	1
1	3284	126.638556870158	1
1	3297	127.113058271285	1
1	3300	127.196066961006	1
1	3310	127.39138114872	1
1	3324	127.715586506139	1
1	3327	127.779108512151	1
1	3343	128.262323326942	1
1	3354	128.525411118372	1
1	3367	129.018921323477	1
1	3370	129.059383876682	1
1	3386	130.822183108456	1
1	3397	131.247818574415	1
1	3400	131.334106625018	1
1	3416	131.871299065539	1
1	3422	132.065372056286	1
1	3437	132.751129997851	1
1	3443	132.944115286242	1
1	3458	133.368104710971	1
1	3464	133.502390583823	1
1	3479	134.311869931064	1
1	3485	134.470999129899	1
1	3500	134.977496169341	1
1	3509	135.204987512864	1
1	3522	135.703861923016	1
1	3531	135.977241156957	1
1	3534	136.00524987734	1
1	3541	136.113119210442	1
1	3543	136.149656637826	2
1	3550	136.200158302572	2
1	3556	136.314141507121	2
1	3564	136.439922059738	2
1	3570	136.497823451982	2
1	3572	136.549181869076	3
1	3580	136.589936611567	3
1	3586	136.723736758028	3
1	3598	136.952020945985	2
1	3618	137.349930147228	1
1	3626	137.486701016871	1
1	3640	137.808578253451	1
1	3652	138.226685819714	1
1	3672	140.28723150251	1
1	3678	140.481412995694	1
1	3691	140.769484460499	1
1	3704	141.425108590011	1
1	3713	141.703596950029	1
1	3724	141.924438022304	1
1	3735	142.284307716159	1
1	3748	142.976163601548	1
1	3759	143.43029289601	1
1	3762	143.452317540877	1
1	3774	143.78713708802	1
1	3779	143.842297926827	1
1	3792	144.153079173533	1
1	3804	144.519057966246	1
1	3815	144.844166119641	1
1	3823	145.015369799348	1
1	3832	145.168730140463	1
1	3844	145.385898112856	1
1	3858	145.911702403418	1
1	3861	145.951369218435	1
1	3873	146.276122233357	1
1	3878	146.344583283935	1
1	3883	146.474065599203	1
1	3899	146.77343126484	1
1	3902	146.872087039769	1
1	3917	147.152318873337	1
1	3920	147.178195387265	1
1	3931	147.399684185401	1
1	3941	147.549237579479	1
1	3957	148.198636468981	1
1	3960	148.20316243187	1
1	3967	148.327411995742	1
1	3969	148.390794372729	2
1	3988	148.741786642213	1
1	3991	148.763579497282	1
1	4002	148.946227816356	1
1	4012	149.060308965986	1
1	4024	149.286532606468	1
1	4032	149.436409617916	1
1	4048	150.150193412687	1
1	4060	150.463297751634	1
1	4068	150.629273930715	1
1	4083	151.151373565047	1
1	4092	151.382689541052	1
1	4103	151.725750689856	1
1	4106	151.778695874409	1
1	4113	151.839586642215	1
1	4115	151.867040899232	2
1	4138	152.651768746313	1
1	4151	153.059532293669	1
1	4162	153.518566252578	1
1	4173	154.118868602166	1
1	4182	154.35991120333	1
1	4193	154.695540468344	1
1	4204	155.056675521075	1
1	4217	155.849125043908	1
1	4226	156.098422771513	1
1	4237	156.446910875366	1
1	4242	156.511371445995	1
1	4258	157.07524087233	1
1	4267	157.434245798521	1
1	4275	157.591577171432	1
1	4290	159.144501831833	1
1	4293	159.154338385621	1
1	4307	159.669226532446	1
1	4320	160.596634124928	1
1	4323	160.66672474918	1
1	4335	160.956227318515	1
1	4340	161.000877143555	1
1	4357	161.667183124206	1
1	4368	162.599637553511	1
1	4374	162.795856142888	1
1	4389	163.639016205574	1
1	4400	164.073276744928	1
1	4411	164.557340150597	1
1	4422	165.259157401029	1
1	4433	165.75942414737	1
1	4439	165.954374436417	1
1	4445	166.008334789883	1
1	4462	167.337112896323	1
1	4473	167.921968665935	1
1	4482	168.293059700028	1
1	4487	168.367798329877	1
1	4492	168.454950229044	1
1	4499	168.513791199253	1
1	4501	168.521487522525	2
1	4513	168.704430436633	1
1	4527	169.082964683244	1
1	4530	169.083098723747	1
1	4534	169.166518037005	2
1	4555	169.820204815816	1
1	4563	169.929887971281	1
1	4566	169.991383829488	1
1	4585	170.545856470675	1
1	4597	171.016325077237	1
1	4600	171.03784120397	1
1	4614	171.343900525318	1
1	4622	171.489260307147	1
1	4636	172.004042771073	1
1	4647	172.297891429069	1
1	4658	172.618587205772	1
1	4669	172.991119239931	1
1	4682	174.130807719531	1
1	4691	174.370721347353	1
1	4699	174.537908794886	1
1	4712	174.83428652448	1
1	4723	175.074801512504	1
1	4736	176.436367924304	1
1	4742	176.580918417408	1
1	4757	177.080011593872	1
1	4768	177.555210018317	1
1	4779	179.565638030719	1
1	4785	179.690722282531	1
1	4800	180.550944170673	1
1	4811	181.11212983231	1
1	4822	182.042483047561	1
1	4825	182.073937464853	1
1	4827	182.112274339036	2
1	4832	182.206335903862	2
1	4834	182.213276413079	3
1	4845	182.415070313926	2
1	4853	182.513839237856	2
1	4859	182.560993816834	2
1	4861	182.571929033487	3
1	4869	182.651358290497	3
1	4871	182.717705773677	4
1	4901	183.3625004016	1
1	4915	183.97810466792	1
1	4923	184.141171055096	1
1	4943	185.083879739944	1
1	4946	185.170250180928	1
1	4962	185.920956423873	1
1	4973	186.576039373638	1
1	4976	186.581531429353	1
1	4988	186.881323252731	1
1	4996	187.002677060523	1
1	5008	187.354198716183	1
1	5022	187.881161107669	1
1	5033	188.650314652998	1
1	5042	188.883630407402	1
1	5055	189.321697523906	1
1	5066	189.851216572849	1
1	5072	189.959029898447	1
1	5087	191.957436265914	1
1	5090	191.960850776258	1
1	5092	191.992783737842	2
1	5106	192.271844370662	1
1	5109	192.331620721734	1
1	5128	192.761903814883	1
1	5138	192.97699121352	1
1	5150	193.55040467462	1
1	5163	194.752179411352	1
1	5166	194.826215488455	1
1	5168	194.827935928781	2
1	5186	195.179933579357	1
1	5189	195.255067702095	1
1	5208	196.231420401314	1
1	5214	196.424433909541	1
1	5223	196.52896395015	1
1	5239	197.314278951418	1
1	5245	197.435375461003	1
1	5260	197.959071987161	1
1	5266	198.153149048334	1
1	5272	198.245860476015	1
1	5285	198.542210645196	1
1	5290	198.615270682819	1
2	7	0.187956992192	1
2	10	0.287956992192	1
2	24	0.923877783242	1
2	37	1.546807198619	1
2	40	1.646807198619	1
2	50	1.786109576054	1
2	64	2.664089467379	1
2	75	4.02371729734	1
2	86	4.258299226058	1
2	91	4.358299226058	1
2	103	4.622370639911	1
2	113	4.799261120275	1
2	125	5.307475288622	1
2	134	5.460484608913	1
2	144	5.716222168926	1
2	155	5.949593078192	1
2	166	6.07283320139	1
2	180	7.714623570689	1
2	183	7.814623570689	1
2	199	8.365497494041	1
2	202	8.465497494041	1
2	214	8.761860216099	1
2	226	9.231242660967	1
2	237	9.830398490325	1
2	248	10.034154186594	1
2	255	10.134154186594	1
2	260	10.234154186594	1
2	273	10.697625377366	1
2	288	11.439534011982	1
2	293	11.539534011982	1
2	300	11.639534011982	1
2	304	11.739534011982	1
2	317	11.859904295575	1
2	324	11.959904295575	1
2	328	12.059904295575	1
2	345	12.763197046349	1
2	355	13.110040641585	1
2	366	13.369620062536	1
2	379	13.673110127838	1
2	388	13.910249679565	1
2	401	14.230889489591	1
2	412	14.691590093033	1
2	423	14.799740041377	1
2	430	14.899740041377	1
2	438	14.999740041377	1
2	442	15.099740041377	1
2	448	15.199740041377	1
2	461	15.671976096645	1
2	471	15.810872984947	1
2	487	16.438323723274	1
2	490	16.538323723274	1
2	506	17.273113588239	1
2	509	17.373113588239	1
2	523	18.446126306061	1
2	534	19.608934266599	1
2	543	19.897342697141	1
2	558	21.025938695362	1
2	563	21.125938695362	1
2	568	21.225938695362	1
2	585	23.063769197701	1
2	588	23.163769197701	1
2	600	23.299511369809	1
2	605	23.399511369809	1
2	618	23.783830526241	1
2	630	24.205038602396	1
2	641	24.853904493207	1
2	652	25.383077795382	1
2	665	25.71818104735	1
2	668	25.81818104735	1
2	678	26.016189035664	1
2	690	26.317872018513	1
2	702	26.478564915345	1
2	705	26.578564915345	1
2	718	26.890107123509	1
2	728	27.143710581857	1
2	741	27.736516519095	1
2	752	28.093895371567	1
2	763	29.003504773762	1
2	776	30.488282891915	1
2	781	30.588282891915	1