version 3
run BaseVersion-1-20240511-20:45:07-11874
attr configname BaseVersion
attr datetime 20240511-20:45:07
attr datetimef 20240511-204507
attr experiment BaseVersion
attr inifile omnetpp.ini
attr iterationvars $genInterval=0.15
attr iterationvarsd genInterval=0.15
attr iterationvarsf genInterval=0.15-
attr measurement $genInterval=0.15
attr network Network
attr processid 11874
attr repetition 0
attr replication #0
attr resultdir results
attr runnumber 1
attr seedset 1
itervar genInterval 0.15
config network Network
config sim-time-limit 200s
config Network.nodeTx.gen.generationInterval exponential(0.15)
config Network.nodeTx.gen.packetByteSize 12500
config Network.nodeTx.queue.bufferSize 200
config Network.nodeRx.queue.bufferSize 200
config Network.queue.bufferSize 200

vector 0 Network.nodeTx.gen packetGen ETV
vector 1 Network.nodeTx.queue bufferSize ETV
vector 2 Network.queue bufferSize ETV
vector 3 Network.nodeRx.queue bufferSize ETV
vector 4 Network.nodeRx.sink Delay ETV
vector 5 Network.nodeRx.sink packetUsed ETV
vector 6 Network.nodeRx.queue packetDrop ETV
0	1	0.080940873977	1
0	12	0.961849603124	1
0	18	1.152968388848	1
0	31	1.55744006454	1
0	34	1.557457222683	1
0	38	1.578023509772	1
0	40	1.63202542195	1
0	68	2.67439256505	1
0	71	2.698199004634	1
0	73	2.738594598285	1
0	75	2.75312717916	1
0	80	2.828898630761	1
0	82	2.859815825856	1
0	89	2.933447399524	1
0	95	2.997043871345	1
0	103	3.163227873222	1
0	109	3.239045753093	1
0	131	3.650300155444	1
0	139	3.766394120985	1
0	153	4.047317671016	1
0	158	4.12881857781	1
0	163	4.185191456709	1
0	175	4.3585734133	1
0	183	4.470096866902	1
0	188	4.504405527891	1
0	195	4.592306047568	1
0	211	4.90801064201	1
0	214	4.947133019501	1
0	216	4.951298463644	1
0	221	5.065967201512	1
0	233	5.232479249295	1
0	249	5.600424221328	1
0	254	5.681437878796	1
0	259	5.773091360447	1
0	267	5.895792457154	1
0	273	5.980294241855	1
0	279	6.002985179506	1
0	295	6.422831971199	1
0	298	6.455947953732	1
0	311	6.681972866081	1
0	323	6.92394801977	1
0	331	7.112749601446	1
0	345	7.630283664539	1
0	355	7.873781868416	1
0	360	7.930187661778	1
0	362	7.944796647647	1
0	373	8.121602173029	1
0	379	8.231121328799	1
0	395	8.544713867243	1
0	405	8.845108438804	1
0	417	9.182616819186	1
0	427	9.447659501975	1
0	430	9.460991431264	1
0	443	9.726435392857	1
0	446	9.73241107473	1
0	450	9.780245707002	1
0	452	9.808164500346	1
0	454	9.81732509307	1
0	475	10.133060540765	1
0	483	10.299600145405	1
0	485	10.315128948228	1
0	495	10.44999441044	1
0	503	10.531990214253	1
0	511	10.699043358418	1
0	527	11.174162196786	1
0	530	11.253762343695	1
0	537	11.368029347078	1
0	543	11.401042373785	1
0	555	11.577630862423	1
0	558	11.628926184894	1
0	567	11.685789606055	1
0	569	11.708783286709	1
0	581	11.882777116957	1
0	593	12.11217334076	1
0	605	12.38210490011	1
0	608	12.461896673278	1
0	610	12.464665309978	1
0	612	12.469880629987	1
0	625	12.677911396591	1
0	635	12.82464827883	1
0	655	13.499244879083	1
0	661	13.661347057585	1
0	673	13.868194621756	1
0	678	13.921373773362	1
0	683	13.970741910321	1
0	685	14.059366920727	1
0	703	14.292950201471	1
0	706	14.330628529801	1
0	708	14.346971241765	1
0	710	14.358400438224	1
0	717	14.447502592372	1
0	725	14.542518976055	1
0	747	14.901388068534	1
0	750	14.916555541838	1
0	752	14.968694589565	1
0	773	15.319224759553	1
0	776	15.37012904274	1
0	778	15.389217222538	1
0	780	15.410111458433	1
0	791	15.521714190317	1
0	793	15.524647733575	1
0	795	15.537746848483	1
0	803	15.708117136652	1
0	825	16.08120394586	1
0	827	16.11687174989	1
0	847	16.478812758608	1
0	850	16.525107079859	1
0	852	16.57837923452	1
0	863	16.679844326801	1
0	869	16.811545204347	1
0	871	16.819771068406	1
0	879	16.944947278337	1
0	885	17.072986084785	1
0	897	17.215749803568	1
0	899	17.239551440322	1
0	921	17.709923603257	1
0	927	17.843409464357	1
0	932	17.888773801828	1
0	943	18.069248951888	1
0	948	18.108651606425	1
0	950	18.124845260978	1
0	957	18.23920328892	1
0	965	18.319382943928	1
0	985	18.768557300465	1
0	993	18.946379111277	1
0	1001	19.048283384831	1
0	1006	19.128494602514	1
0	1013	19.245169866839	1
0	1019	19.252856512571	1
0	1031	19.470391940227	1
0	1041	19.58553906438	1
0	1044	19.592499967347	1
0	1053	19.756004938575	1
0	1055	19.778622462892	1
0	1067	19.887129128385	1
0	1079	20.122953033705	1
0	1093	20.556915195544	1
0	1096	20.561453362301	1
0	1103	20.693937994019	1
0	1117	21.015936143052	1
0	1129	21.36651559407	1
0	1137	21.483252151944	1
0	1140	21.505435771985	1
0	1147	21.594561471918	1
0	1149	21.617058739278	1
0	1167	21.951091172173	1
0	1179	22.198155356211	1
0	1182	22.269277429323	1
0	1189	22.345321602866	1
0	1195	22.461288112349	1
0	1199	22.488400286612	1
0	1209	22.646862088648	1
0	1225	23.040505146168	1
0	1230	23.107744055485	1
0	1235	23.171846805968	1
0	1243	23.298794553751	1
0	1255	23.507226762595	1
0	1263	23.659575680502	1
0	1273	23.853768654627	1
0	1278	23.874023941189	1
0	1293	24.196254081934	1
0	1301	24.372030556822	1
0	1311	24.518624765321	1
0	1321	24.675136627266	1
0	1333	24.883647312272	1
0	1336	24.949176536445	1
0	1341	25.013539959509	1
0	1353	25.229641807331	1
0	1358	25.276833603439	1
0	1365	25.342965984626	1
0	1381	25.682306618882	1
0	1391	25.891933183016	1
0	1394	25.9757495416	1
0	1409	26.295475806364	1
0	1421	26.797652947003	1
0	1424	26.799413619061	1
0	1431	26.962761112788	1
0	1437	27.066166980687	1
0	1449	27.211975445689	1
0	1452	27.223473914602	1
0	1454	27.241756009924	1
0	1467	27.473691307507	1
0	1485	27.921526700897	1
0	1488	27.931458461236	1
0	1490	28.02111004958	1
0	1497	28.086957988774	1
0	1503	28.216509033515	1
0	1523	28.643184778701	1
0	1528	28.721856742528	1
0	1533	28.793514529119	1
0	1535	28.834094419635	1
0	1551	29.049998108449	1
0	1565	29.40054278572	1
0	1575	29.622038019202	1
0	1583	29.749922595258	1
0	1586	29.803715656351	1
0	1588	29.804146824158	1
0	1601	30.026395340108	1
0	1613	30.170410150104	1
0	1616	30.195305910131	1
0	1620	30.254628278259	1
0	1631	30.384266273673	1
0	1639	30.496583685202	1
0	1641	30.497941007119	1
0	1657	30.823598360514	1
0	1667	31.008785082628	1
0	1674	31.075089609166	1
0	1679	31.170502819687	1
0	1695	31.529272892262	1
0	1705	31.746238520775	1
0	1713	31.892708385594	1
0	1718	31.987204016373	1
0	1720	31.989596176266	1
0	1725	32.036597664545	1
0	1745	32.434285565287	1
0	1757	32.701580037329	1
0	1765	32.877692106777	1
0	1773	32.997910558879	1
0	1793	33.886361018709	1
0	1796	33.897259767524	1
0	1798	33.925632785612	1
0	1803	34.021566650593	1
0	1805	34.043691335636	1
0	1817	34.247356017063	1
0	1837	34.651912463535	1
0	1842	34.683883292631	1
0	1851	34.86289667218	1
0	1858	34.956527040823	1
0	1863	34.966768894811	1
0	1865	35.006044302218	1
0	1877	35.217302631859	1
0	1885	35.323769603986	1
0	1897	35.534057692479	1
0	1902	35.569144448332	1
0	1917	35.95378474121	1
0	1920	35.96136891964	1
0	1927	36.147840820997	1
0	1937	36.257580954313	1
0	1942	36.277485737354	1
0	1944	36.305847491509	1
0	1946	36.308859551594	1
0	1953	36.384564537309	1
0	1955	36.388548630031	1
0	1957	36.405585309283	1
0	1959	36.409892535622	1
0	1967	36.51683695194	1
0	1973	36.559233384491	1
0	1975	36.575393756728	1
0	1991	36.870340635127	1
0	1995	36.921443545336	1
0	2001	37.037542173159	1
0	2009	37.077089837339	1
0	2015	37.197809611397	1
0	2043	37.712563940468	1
0	2059	37.989367309323	1
0	2062	38.038293086513	1
0	2066	38.058181145243	1
0	2073	38.09809321228	1
0	2075	38.147198852132	1
0	2077	38.161602229807	1
0	2089	38.293798429158	1
0	2095	38.420417194243	1
0	2121	38.944393104545	1
0	2124	39.025566896992	1
0	2135	39.149065602897	1
0	2138	39.217858284658	1
0	2140	39.220681786081	1
0	2157	39.472174752009	1
0	2171	39.714065695789	1
0	2174	39.765388546833	1
0	2176	39.805173787279	1
0	2187	39.994727751116	1
0	2201	40.2415692918	1
0	2209	40.383948761005	1
0	2214	40.457568058859	1
0	2221	40.541074888687	1
0	2235	40.839835487352	1
0	2245	41.048907653876	1
0	2255	41.255134658067	1
0	2260	41.338877975127	1
0	2269	41.460748765831	1
0	2274	41.544641524721	1
0	2281	41.566647954568	1
0	2283	41.634038040751	1
0	2285	41.643306218089	1
0	2291	41.668274361757	1
0	2295	41.687678539805	1
0	2317	42.102825465557	1
0	2319	42.109661686675	1
0	2339	42.481936166574	1
0	2342	42.498994493692	1
0	2353	42.727454948112	1
0	2356	42.76582613978	1
0	2365	42.909521597096	1
0	2377	43.096756799358	1
0	2380	43.102256309208	1
0	2387	43.225306938698	1
0	2395	43.384644843409	1
0	2397	43.386540164574	1
0	2403	43.407389758002	1
0	2405	43.41859413316	1
0	2407	43.470891533879	1
0	2435	43.983840023689	1
0	2440	44.050974168905	1
0	2447	44.176908509443	1
0	2453	44.225072654444	1
0	2455	44.259162944295	1
0	2457	44.270690079095	1
0	2465	44.31430826201	1
0	2467	44.339063721761	1
0	2479	44.543348394884	1
0	2481	44.569790704902	1
0	2487	44.602407703853	1
0	2509	45.021232646626	1
0	2517	45.151843850647	1
0	2523	45.221419387919	1
0	2541	45.747503052901	1
0	2544	45.755199902529	1
0	2555	46.036629756338	1
0	2567	46.23924310207	1
0	2572	46.280378585245	1
0	2574	46.333597287993	1
0	2579	46.435711828143	1
0	2585	46.470002743011	1
0	2593	46.615122865863	1
0	2615	47.215715939953	1
0	2627	47.480612942524	1
0	2637	47.815881648215	1
0	2640	47.841462782551	1
0	2651	48.055123786591	1
0	2654	48.057936422043	1
0	2663	48.215890753438	1
0	2665	48.226779929151	1
0	2667	48.232853783656	1
0	2675	48.332784331524	1
0	2691	48.584985947228	1
0	2699	48.724822083881	1
0	2711	48.940506431519	1
0	2719	49.066701814926	1
0	2726	49.157825001759	1
0	2731	49.215093677015	1
0	2739	49.3289311086	1
0	2757	50.000265125887	1
0	2760	50.017633340672	1
0	2767	50.147667461895	1
0	2769	50.171346826006	1
0	2775	50.243086355476	1
0	2783	50.349718501902	1
0	2789	50.469811062624	1
0	2797	50.506246104734	1
0	2809	50.711416717802	1
0	2825	51.08375191619	1
0	2831	51.249703029634	1
0	2838	51.34273006621	1
0	2843	51.388896367402	1
0	2845	51.41017709718	1
0	2847	51.420472706921	1
0	2859	51.637214873955	1
0	2867	51.706540242199	1
0	2869	51.742418548346	1
0	2881	51.891441909489	1
0	2883	51.903015934961	1
0	2885	51.938407328926	1
0	2891	51.953449883337	1
0	2903	52.163056551751	1
0	2905	52.189603919059	1
0	2907	52.199931928773	1
0	2913	52.266048451048	1
0	2917	52.311278100607	1
0	2919	52.32630217808	1
0	2935	52.571326859064	1
0	2937	52.594520504052	1
0	2939	52.626765988726	1
0	2961	53.027841412921	1
0	2973	53.18086463546	1
0	2981	53.309774732382	1
0	2987	53.421336726032	1
0	3005	53.695891699467	1
0	3021	54.084048200833	1
0	3027	54.230490985577	1
0	3032	54.276326507644	1
0	3039	54.335175712021	1
0	3041	54.345411289134	1
0	3053	54.540710690432	1
0	3065	54.739951852094	1
0	3073	54.850904870779	1
0	3085	55.072783488645	1
0	3095	55.273016183196	1
0	3107	55.630611257823	1
0	3110	55.657732763083	1
0	3125	56.060908295638	1
0	3133	56.235169050252	1
0	3136	56.237276521518	1
0	3142	56.320757446718	1
0	3147	56.360814334492	1
0	3159	56.556415019659	1
0	3167	56.700286281955	1
0	3179	56.912080664383	1
0	3193	57.358518122586	1
0	3196	57.434545970991	1
0	3213	57.88443510137	1
0	3223	58.273375926994	1
0	3231	58.395386369154	1
0	3234	58.429517534685	1
0	3251	58.800357012086	1
0	3254	58.801562247735	1
0	3261	58.955463944683	1
0	3277	59.346730063464	1
0	3280	59.420876409617	1
0	3285	59.473206140776	1
0	3293	59.57303322008	1
0	3295	59.600432749027	1
0	3303	59.739501564973	1
0	3305	59.743161088298	1
0	3315	59.86278662481	1
0	3323	59.953009063373	1
0	3341	60.343930800168	1
0	3353	60.591734663769	1
0	3365	60.968237755274	1
0	3368	61.037157107844	1
0	3375	61.112505294646	1
0	3381	61.253441880776	1
0	3399	61.749035607643	1
0	3402	61.754356016351	1
0	3404	61.783022041358	1
0	3406	61.848699500168	1
0	3411	61.86895730019	1
0	3415	61.8812234261	1
0	3417	61.902991018913	1
0	3429	62.080217663608	1
0	3435	62.185898082908	1
0	3437	62.18781720746	1
0	3439	62.191081184315	1
0	3447	62.283382847487	1
0	3469	62.726773675788	1
0	3493	63.214627931142	1
0	3505	63.477897634999	1
0	3508	63.538909198404	1
0	3510	63.541179134426	1
0	3515	63.637001686049	1
0	3517	63.666075129676	1
0	3525	63.682780450782	1
0	3527	63.743314792588	1
0	3533	63.848212492673	1
0	3535	63.869273770973	1
0	3557	64.194599771896	1
0	3569	64.443307904585	1
0	3577	64.557964860838	1
0	3583	64.621372571394	1
0	3585	64.670956156894	1
0	3607	65.093236722082	1
0	3610	65.158915912947	1
0	3617	65.289762078276	1
0	3631	65.62967148562	1
0	3643	65.946258062734	1
0	3646	65.987717786398	1
0	3659	66.267110542098	1
0	3662	66.270736633453	1
0	3677	66.624439114079	1
0	3691	67.130447871308	1
0	3694	67.222842535717	1
0	3701	67.307151925401	1
0	3707	67.425715268193	1
0	3715	67.489478644238	1
0	3727	67.729850661546	1
0	3735	67.858932111761	1
0	3740	67.909403906657	1
0	3742	67.929695471117	1
0	3749	68.030771738027	1
0	3771	68.480261556813	1
0	3777	68.617371902711	1
0	3780	68.673818479122	1
0	3784	68.676166755994	1
0	3805	69.134269908935	1
0	3811	69.269288750718	1
0	3816	69.306249279164	1
0	3823	69.391537711795	1
0	3825	69.434430287643	1
0	3843	69.681470513793	1
0	3855	69.980517128404	1
0	3858	70.037321211297	1
0	3862	70.07755575038	1
0	3879	70.412638776482	1
0	3889	70.665829844041	1
0	3897	70.795191595052	1
0	3907	70.912947165639	1
0	3910	70.943450180232	1
0	3912	70.975291900025	1
0	3925	71.207917188811	1
0	3937	71.341233092364	1
0	3947	71.483257638215	1
0	3950	71.49065773029	1
0	3952	71.498970251822	1
0	3954	71.501370297521	1
0	3958	71.583129472003	1
0	3963	71.590777843901	1
0	3971	71.761257137698	1
0	3977	71.837734875288	1
0	3999	72.213995152822	1
0	4007	72.343018566333	1
0	4009	72.343078881921	1
0	4025	72.646274538387	1
0	4041	73.210551064757	1
0	4051	73.441931714958	1
0	4056	73.512812015689	1
0	4061	73.556907837186	1
0	4079	74.103113025442	1
0	4082	74.11598836616	1
0	4087	74.255211022147	1
0	4091	74.280963849568	1
0	4107	74.545742414216	1
0	4110	74.58100450669	1
0	4119	74.709252636995	1
0	4125	74.790286372131	1
0	4133	74.938646315693	1
0	4139	75.002731624976	1
0	4145	75.053173481476	1
0	4153	75.233711428464	1
0	4165	75.366297062423	1
0	4175	75.545652871372	1
0	4187	75.753610084555	1
0	4190	75.765259548323	1
0	4203	76.058380667456	1
0	4206	76.063953369356	1
0	4219	76.274978254074	1
0	4231	76.508647342957	1
0	4239	76.688275019805	1
0	4251	77.034457707064	1
0	4263	77.334252487004	1
0	4266	77.33495362	1
0	4268	77.393395558242	1
0	4273	77.439415772282	1
0	4281	77.606074136528	1
0	4289	77.70056543569	1
0	4295	77.790479521248	1
0	4301	77.857379513307	1
0	4305	77.929594478101	1
0	4311	77.970802964913	1
0	4317	78.050154294377	1
0	4319	78.053670496026	1
0	4323	78.13066469281	1
0	4333	78.244451401869	1
0	4337	78.30172481156	1
0	4339	78.32264769749	1
0	4349	78.46854486683	1
0	4357	78.592190148376	1
0	4365	78.676573073057	1
0	4367	78.704130996854	1
0	4397	79.250442293452	1
0	4401	79.332429581923	1
0	4413	79.502317416767	1
0	4425	79.675446271145	1
0	4428	79.708649897278	1
0	4432	79.756660094295	1
0	4437	79.840112279895	1
0	4439	79.841619788965	1
0	4447	79.904709548998	1
0	4449	79.9419530432	1
0	4465	80.181608207307	1
0	4467	80.186479901988	1
0	4485	80.504517291125	1
0	4501	80.914227853634	1
0	4511	81.265492167788	1
0	4523	81.494044529879	1
0	4529	81.657070722477	1
0	4539	81.766416097899	1
0	4542	81.813665509943	1
0	4544	81.81615547719	1
0	4548	81.859781877118	1
0	4555	81.91302624392	1
0	4571	82.202573937115	1
0	4579	82.319288071498	1
0	4585	82.431813858065	1
0	4601	82.726606091308	1
0	4611	82.969651411569	1
0	4614	83.000357525207	1
0	4621	83.127823646048	1
0	4623	83.140910213388	1
0	4635	83.339066301719	1
0	4637	83.345858637165	1
0	4643	83.45564546499	1
0	4651	83.543641718578	1
0	4663	83.764670690653	1
0	4665	83.767596860251	1
0	4677	83.893794525386	1
0	4679	83.904202190058	1
0	4685	83.998224632631	1
0	4697	84.248739437816	1
0	4705	84.311679118153	1
0	4711	84.463389136023	1
0	4717	84.473986202202	1
0	4731	84.696308189703	1
0	4734	84.767512183376	1
0	4747	84.95097642572	1
0	4750	84.963422714589	1
0	4754	85.004235547555	1
0	4775	85.613811779344	1
0	4778	85.620626975237	1
0	4780	85.650689941253	1
0	4784	85.700219284839	1
0	4799	85.950803579775	1
0	4813	86.25127528382	1
0	4825	86.563145503805	1
0	4828	86.574535715444	1
0	4835	86.749447337701	1
0	4847	86.91141528335	1
0	4855	87.037834529365	1
0	4858	87.068958019667	1
0	4862	87.095284598787	1
0	4869	87.206096234946	1
0	4877	87.300447552076	1
0	4895	87.651770081767	1
0	4900	87.715277494195	1
0	4905	87.811974692277	1
0	4907	87.850216262875	1
0	4925	88.131835713848	1
0	4933	88.266497232856	1
0	4947	88.540244490793	1
0	4950	88.596398299412	1
0	4952	88.618896212619	1
0	4971	88.990983607583	1
0	4979	89.107562272469	1
0	4991	89.468147884014	1
0	4996	89.56255697405	1
0	5001	89.607139743542	1
0	5003	89.644155873224	1
0	5005	89.661786240508	1
0	5013	89.748981051004	1
0	5019	89.78113886588	1
0	5027	89.879308102561	1
0	5033	89.983155482648	1
0	5035	90.043964217987	1
0	5047	90.239580528792	1
0	5049	90.240923424115	1
0	5057	90.275939337292	1
0	5063	90.38155961576	1
0	5065	90.42431915315	1
0	5077	90.592055993788	1
0	5095	90.878305256842	1
0	5097	90.886863735461	1
0	5099	90.96750302944	1
0	5105	90.993224449766	1
0	5113	91.13705920277	1
0	5125	91.27642883861	1
0	5127	91.316349441523	1
0	5133	91.374027688954	1
0	5135	91.390160001643	1
0	5153	91.72195806278	1
0	5159	91.830764310561	1
0	5171	92.065128511685	1
0	5179	92.162395024965	1
0	5185	92.199184078715	1
0	5187	92.224034128168	1
0	5189	92.257544852596	1
0	5201	92.403397140994	1
0	5213	92.574518706777	1
0	5221	92.692311406174	1
0	5223	92.71779036542	1
0	5235	92.877047396483	1
0	5241	92.984160428446	1
0	5243	93.007578791144	1
0	5269	93.671816743227	1
0	5281	93.880680401809	1
0	5284	93.904124431585	1
0	5286	93.94178821929	1
0	5288	93.949214034169	1
0	5293	94.059106990893	1
0	5315	94.403097284497	1
0	5327	94.633871547076	1
0	5335	94.822335026771	1
0	5338	94.825722555569	1
0	5344	94.881453393882	1
0	5349	94.940268173937	1
0	5351	95.015137386926	1
0	5373	95.324580965806	1
0	5376	95.337216043617	1
0	5389	95.616584807686	1
0	5396	95.681692579069	1
0	5401	95.797664255125	1
0	5403	95.797816324166	1
0	5421	96.099986096665	1
0	5429	96.246962749422	1
0	5445	96.695741688412	1
0	5448	96.72926411832	1
0	5459	96.991920382672	1
0	5469	97.139089413136	1
0	5481	97.427830366214	1
0	5486	97.48600033778	1
0	5488	97.501595128344	1
0	5490	97.508866281516	1
0	5499	97.666899644248	1
0	5511	97.859657959345	1
0	5523	98.042022763217	1
0	5535	98.255623444093	1
0	5543	98.39695737545	1
0	5550	98.475165632769	1
0	5563	98.716293043728	1
0	5571	98.899072291202	1
0	5574	98.90434973319	1
0	5581	99.036401139314	1
0	5593	99.257008308632	1
0	5609	99.780830180375	1
0	5617	99.978193598822	1
0	5622	100.032528242984	1
0	5626	100.07763288272	1
0	5631	100.134111051908	1
0	5637	100.178683927935	1
0	5639	100.217200925467	1
0	5647	100.367275461677	1
0	5659	100.534639790118	1
0	5665	100.598175933179	1
0	5677	100.824562052076	1
0	5689	101.063440821477	1
0	5699	101.171260332617	1
0	5702	101.259888519634	1
0	5715	101.403168567554	1
0	5727	101.63217414193	1
0	5730	101.639184616891	1
0	5749	102.337209236215	1
0	5752	102.4258247694	1
0	5759	102.479379235599	1
0	5775	102.99574146715	1
0	5778	103.018890092121	1
0	5782	103.08573013917	1
0	5799	103.433093510187	1
0	5807	103.554219773562	1
0	5815	103.671208448317	1
0	5820	103.750698096403	1
0	5839	104.302480237127	1
0	5851	104.809895018649	1
0	5859	104.9617345044	1
0	5862	104.995780481347	1
0	5883	105.761020935114	1
0	5899	106.501626586269	1
0	5905	106.620098694205	1
0	5915	106.781567601486	1
0	5925	106.893684643715	1
0	5937	107.142067593724	1
0	5940	107.163895680709	1
0	5945	107.255810834145	1
0	5949	107.321750661361	1
0	5967	107.649215258678	1
0	5970	107.65320051905	1
0	5977	107.767714829938	1
0	5979	107.793938422824	1
0	5987	107.923095015117	1
0	5999	108.12844406044	1
0	6015	108.50268451206	1
0	6018	108.507315214071	1
0	6020	108.563878904276	1
0	6025	108.63236340105	1
0	6037	108.826633282734	1
0	6053	109.124085356599	1
0	6063	109.369480239236	1
0	6071	109.546458985961	1
0	6076	109.64456610909	1
0	6087	109.820700125249	1
0	6097	109.920990079636	1
0	6100	109.952346001397	1
0	6115	110.2285610136	1
0	6120	110.316044731641	1
0	6129	110.437674808153	1
0	6139	110.56836431451	1
0	6142	110.615546536023	1
0	6163	111.302643175984	1
0	6167	111.402689879668	1
0	6172	111.436895623694	1
0	6176	111.485308283226	1
0	6183	111.52800785831	1
0	6185	111.566317290789	1
0	6191	111.611924191721	1
0	6199	111.768012742419	1
0	6211	111.976060379209	1
0	6231	112.357060338847	1
0	6234	112.448650418557	1
0	6241	112.482210995402	1
0	6243	112.491003120558	1
0	6259	112.808859144167	1
0	6269	112.915408101394	1
0	6274	113.0094580112	1
0	6279	113.045189006436	1
0	6291	113.238825790941	1
0	6305	113.479198296579	1
0	6308	113.533316086584	1
0	6313	113.586246569285	1
0	6321	113.686956565747	1
0	6323	113.691155699032	1
0	6325	113.725317755299	1
0	6331	113.860318535462	1
0	6333	113.874237221474	1
0	6351	114.15276875955	1
0	6357	114.179941231322	1
0	6359	114.251892639766	1
0	6367	114.356766381167	1
0	6379	114.564625546383	1
0	6395	114.797004732451	1
0	6405	114.904357054127	1
0	6417	115.255247320709	1
0	6425	115.372037333001	1
0	6428	115.409215043462	1
0	6447	115.889939966587	1
0	6457	116.090926583333	1
0	6467	116.335342752824	1
0	6470	116.380063817094	1
0	6472	116.384992366505	1
0	6479	116.509581155076	1
0	6491	116.694945704634	1
0	6493	116.716254503168	1
0	6499	116.810078198575	1
0	6507	116.879881408096	1
0	6527	117.322062636494	1
0	6530	117.33503616623	1
0	6532	117.372581149576	1
0	6539	117.478281005532	1
0	6545	117.524887179998	1
0	6553	117.702712276685	1
0	6555	117.715460031652	1
0	6561	117.807050822687	1
0	6569	117.891005634372	1
0	6575	117.958247758373	1
0	6577	117.975562544898	1
0	6593	118.229491591764	1
0	6601	118.38017251753	1
0	6603	118.387206626177	1
0	6619	118.63086136905	1
0	6623	118.704472615866	1
0	6635	118.883477254898	1
0	6641	118.975495507482	1
0	6653	119.193496193125	1
0	6663	119.3931149908	1
0	6668	119.45600110054	1
0	6683	119.81658907276	1
0	6695	120.097064886407	1
0	6698	120.145800940046	1
0	6703	120.229795120488	1
0	6717	120.485166642357	1
0	6729	120.7457657433	1
0	6737	120.905970579204	1
0	6745	121.053694627712	1
0	6748	121.055396291109	1
0	6752	121.078617959285	1
0	6765	121.278022115674	1
0	6767	121.290266581886	1
0	6773	121.429026442652	1
0	6775	121.431801857258	1
0	6787	121.602725974832	1
0	6789	121.613084279769	1
0	6797	121.744630283873	1
0	6803	121.836665334493	1
0	6815	121.964494149763	1
0	6817	121.982538528123	1
0	6819	122.049720252976	1
0	6825	122.05394674303	1
0	6849	122.531980310911	1
0	6861	122.742870086322	1
0	6877	123.393632580054	1
0	6880	123.468974536275	1
0	6887	123.542416230246	1
0	6899	123.748534637504	1
0	6911	124.019882694947	1
0	6916	124.110215543002	1
0	6933	124.714014133938	1
0	6936	124.803713343699	1
0	6947	124.935762496894	1
0	6952	125.033296487171	1
0	6963	125.200020122316	1
0	6970	125.296389352081	1
0	6975	125.309920166583	1
0	6987	125.553727317249	1
0	7003	126.268010897581	1
0	7008	126.345234065831	1
0	7021	126.572012831386	1
0	7033	126.924599860822	1
0	7049	127.701408143395	1
0	7052	127.707072932079	1
0	7057	127.866135968911	1
0	7071	128.089135634091	1
0	7074	128.094857586295	1
0	7078	128.114997285799	1
0	7089	128.305455086012	1
0	7095	128.450007085288	1
0	7107	128.62477572718	1
0	7110	128.626338478385	1
0	7119	128.767123948324	1
0	7127	128.883156308722	1
0	7129	128.899999189043	1
0	7131	128.900452567754	1
0	7137	128.949870910584	1
0	7159	129.402855551995	1
0	7171	129.627415727832	1
0	7183	129.981133623183	1
0	7195	130.312451810045	1
0	7205	130.550872795791	1
0	7211	130.658058852518	1
0	7225	131.028309329443	1
0	7233	131.216972304496	1
0	7238	131.240568343545	1
0	7240	131.252713881183	1
0	7244	131.27846209051	1
0	7253	131.421757460971	1
0	7255	131.452927675908	1
0	7273	131.725770023283	1
0	7279	131.871896100105	1
0	7291	132.05050789827	1
0	7305	132.4048732881	1
0	7313	132.526345445392	1
0	7329	133.216450124645	1
0	7341	133.512647115129	1
0	7349	133.69890997438	1
0	7361	133.904072978344	1
0	7369	134.101476556326	1
0	7374	134.147567324421	1
0	7389	134.507585768998	1
0	7409	135.763626435763	1
0	7412	135.840468870898	1
0	7423	135.968371891124	1
0	7426	136.011494340569	1
0	7435	136.164350445144	1
0	7441	136.192921076224	1
0	7449	136.29383443503	1
0	7451	136.312916920682	1
0	7467	136.643157955794	1
0	7481	136.8943429127	1
0	7491	137.205672611248	1
0	7494	137.229485463591	1
0	7509	137.511859564249	1
0	7512	137.55789897788	1
0	7523	137.71439996399	1
0	7535	137.970862620687	1
0	7543	138.102993434255	1
0	7546	138.158780704507	1
0	7553	138.208386425342	1
0	7571	138.814513630035	1
0	7587	139.532409635914	1
0	7590	139.578927155179	1
0	7601	139.820088951815	1
0	7611	139.934512856759	1
0	7619	140.03897660761	1
0	7624	140.095610404963	1
0	7637	140.317579451914	1
0	7651	140.680064915129	1
0	7654	140.699971253123	1
0	7656	140.768458957479	1
0	7675	141.149238989896	1
0	7678	141.234505169203	1
0	7680	141.241386095509	1
0	7687	141.349092071983	1
0	7693	141.388025242159	1
0	7713	141.807278561544	1
0	7725	142.084515036196	1
0	7728	142.089230742349	1
0	7730	142.143930678066	1
0	7741	142.333212636179	1
0	7747	142.432553417668	1
0	7763	142.765040608594	1
0	7771	142.922536895103	1
0	7774	142.926686860415	1
0	7776	142.94999958091	1
0	7783	143.060737346631	1
0	7787	143.115486242672	1
0	7793	143.174662749433	1
0	7811	143.501612321282	1
0	7825	143.79598308745	1
0	7837	144.122828518249	1
0	7843	144.24547072916	1
0	7853	144.354078710726	1
0	7863	144.529866459815	1
0	7868	144.576475813671	1
0	7873	144.666931616771	1
0	7889	144.985401100342	1
0	7897	145.133854979157	1
0	7905	145.237223265288	1
0	7910	145.288617275502	1
0	7917	145.34946087806	1
0	7919	145.350869760601	1
0	7937	145.688506208674	1
0	7945	145.817477151444	1
0	7948	145.851791619382	1
0	7954	145.907765459846	1
0	7969	146.164656133318	1
0	7977	146.273900055211	1
0	7991	146.547701698121	1
0	8003	146.919968960566	1
0	8009	147.030940652054	1
0	8014	147.114333659252	1
0	8021	147.140833120584	1
0	8023	147.183465540519	1
0	8043	147.629787402428	1
0	8048	147.699401077332	1
0	8050	147.708594500193	1
0	8069	148.111525580969	1
0	8079	148.437917765126	1
0	8091	148.852297791888	1
0	8099	148.980416435873	1
0	8111	149.259418923517	1
0	8116	149.330845575286	1
0	8131	149.710092588428	1
0	8137	149.863717942506	1
0	8142	149.902514179835	1
0	8146	149.923025862741	1
0	8148	149.936758017762	1
0	8153	150.015067010175	1
0	8155	150.05374856051	1
0	8163	150.119852591316	1
0	8169	150.17646661326	1
0	8171	150.201048598254	1
0	8173	150.229861820195	1
0	8191	150.521046702629	1
0	8197	150.661174498796	1
0	8205	150.677313557361	1
0	8207	150.75737305108	1
0	8233	151.216400884142	1
0	8247	151.470610644146	1
0	8252	151.497985367335	1
0	8254	151.528694443452	1
0	8259	151.615507776603	1
0	8271	151.797044909582	1
0	8273	151.823272291205	1
0	8275	151.864508022354	1
0	8297	152.181640013505	1
0	8307	152.309714566696	1
0	8312	152.407357185596	1
0	8317	152.471741172939	1
0	8325	152.548153515154	1
0	8327	152.556951202378	1
0	8329	152.605286057712	1
0	8335	152.644259847497	1
0	8337	152.652213208114	1
0	8349	152.815855619358	1
0	8351	152.838255026034	1
0	8359	152.941404390124	1
0	8371	153.167598051326	1
0	8379	153.277386238635	1
0	8381	153.306798207995	1
0	8387	153.335603118101	1
0	8393	153.466961304656	1
0	8401	153.593806737344	1
0	8423	153.988728294875	1
0	8443	154.848251470105	1
0	8446	154.865338329212	1
0	8459	155.119943605218	1
0	8464	155.210342072487	1
0	8475	155.345690124493	1
0	8478	155.37112920856	1
0	8497	155.930516121774	1
0	8500	155.984922408004	1
0	8515	156.332672553294	1
0	8525	156.549339873555	1
0	8533	156.685145434739	1
0	8541	156.833040579019	1
0	8544	156.837985135106	1
0	8553	157.024233905615	1
0	8559	157.03897130106	1
0	8561	157.071221675119	1
0	8565	157.081362633188	1
0	8567	157.091995395538	1
0	8573	157.182144368807	1
0	8591	157.499754507799	1
0	8597	157.570359448341	1
0	8599	157.628175495688	1
0	8625	158.183622443515	1
0	8633	158.322755534338	1
0	8636	158.350340947396	1
0	8653	158.816207079807	1
0	8667	159.356819406327	1
0	8670	159.4374441652	1
0	8681	159.656257714097	1
0	8688	159.688960886033	1
0	8699	159.949754421464	1
0	8704	159.976987825313	1
0	8711	160.127189899823	1
0	8721	160.27423713944	1
0	8731	160.439961622956	1
0	8734	160.448652660673	1
0	8743	160.545844990184	1
0	8745	160.605592980103	1
0	8747	160.607576490072	1
0	8773	161.197500937736	1
0	8776	161.262813695921	1
0	8789	161.484310494868	1
0	8797	161.585922773633	1
0	8800	161.621154424544	1
0	8813	161.817605101895	1
0	8823	161.949628653778	1
0	8828	162.044472690905	1
0	8835	162.131388708044	1
0	8841	162.223097499246	1
0	8853	162.365712036961	1
0	8856	162.387928361542	1
0	8858	162.445771433259	1
0	8860	162.447413700943	1
0	8864	162.465214299604	1
0	8881	162.678209509141	1
0	8883	162.734525853545	1
0	8889	162.792364821029	1
0	8917	163.558219258281	1
0	8931	164.182132915342	1
0	8934	164.209320586488	1
0	8936	164.24663484123	1
0	8943	164.339876098213	1
0	8949	164.401910071081	1
0	8957	164.553301442849	1
0	8963	164.664619329688	1
0	8965	164.670288312585	1
0	8979	164.881196434401	1
0	8985	164.925005033704	1
0	8991	165.018508405965	1
0	9009	165.324787107476	1
0	9012	165.344786398733	1
0	9014	165.36734552996	1
0	9018	165.423549849125	1
0	9023	165.426285283745	1
0	9031	165.531619275561	1
0	9039	165.70715837387	1
0	9051	165.875217596773	1
0	9067	166.182499492126	1
0	9079	166.403048716916	1
0	9082	166.46894271222	1
0	9086	166.489889927096	1
0	9091	166.565715675147	1
0	9093	166.569192938811	1
0	9109	166.867262468084	1
0	9117	166.977071342089	1
0	9133	167.380876849316	1
0	9143	167.629977617523	1
0	9148	167.719860283422	1
0	9150	167.721762863195	1
0	9171	168.275042648509	1
0	9177	168.442468920127	1
0	9187	168.622036931633	1
0	9197	168.796177867533	1
0	9209	169.006304106406	1
0	9214	169.095774366256	1
0	9223	169.225106676849	1
0	9237	169.59449983629	1
0	9240	169.616185420394	1
0	9247	169.771261321212	1
0	9261	170.01856536111	1
0	9264	170.019353403265	1
0	9266	170.035937607394	1
0	9273	170.135309483813	1
0	9275	170.196620092492	1
0	9293	170.490807877182	1
0	9299	170.615450262338	1
0	9315	170.881596764189	1
0	9321	171.027759670274	1
0	9331	171.184870937823	1
0	9338	171.276772270731	1
0	9347	171.444762255258	1
0	9361	171.696143186109	1
0	9367	171.825733362466	1
0	9370	171.868538320812	1