version 3
run BaseVersion-6-20240511-20:45:07-11874
attr configname BaseVersion
attr datetime 20240511-20:45:07
attr datetimef 20240511-204507
attr experiment BaseVersion
attr inifile omnetpp.ini
attr iterationvars $genInterval=0.4
attr iterationvarsd genInterval=0.4
attr iterationvarsf genInterval=0.4-
attr measurement $genInterval=0.4
attr network Network
attr processid 11874
attr repetition 0
attr replication #0
attr resultdir results
attr runnumber 6
attr seedset 6
itervar genInterval 0.4
config network Network
config sim-time-limit 200s
config Network.nodeTx.gen.generationInterval exponential(0.4)
config Network.nodeTx.gen.packetByteSize 12500
config Network.nodeTx.queue.bufferSize 200
config Network.nodeRx.queue.bufferSize 200
config Network.queue.bufferSize 200

vector 0 Network.nodeTx.gen packetGen ETV
vector 1 Network.nodeTx.queue bufferSize ETV
vector 2 Network.queue bufferSize ETV
vector 3 Network.nodeRx.queue bufferSize ETV
vector 4 Network.nodeRx.sink Delay ETV
vector 5 Network.nodeRx.sink packetUsed ETV
0	1	0.893448103126	1
0	12	2.072042711789	1
0	18	2.233417461	1
0	24	2.327405932924	1
0	41	3.016066061121	1
0	44	3.042630803465	1
0	46	3.059667154385	1
0	56	3.244550807095	1
0	58	3.29011253847	1
0	84	4.970763783001	1
0	93	5.332362497513	1
0	98	5.374271967556	1
0	110	5.67612559335	1
0	122	6.05120654375	1
0	133	6.268275796548	1
0	144	6.570622391837	1
0	152	6.734055085235	1
0	165	6.997810634845	1
0	176	7.387505106344	1
0	189	8.085171481721	1
0	198	8.315773521834	1
0	211	8.878393520259	1
0	222	9.410937402142	1
0	228	9.608639916801	1
0	241	9.900594602178	1
0	247	10.010271349506	1
0	262	10.356186008473	1
0	265	10.423844746057	1
0	281	10.838500044591	1
0	294	11.353918510787	1
0	305	13.205059562799	1
0	316	14.187332602017	1
0	327	14.872936979291	1
0	336	15.129178718142	1
0	347	15.342407848503	1
0	360	15.796315791807	1
0	371	16.632169603195	1
0	382	17.279401468182	1
0	393	17.973763605817	1
0	402	18.218895562531	1
0	405	18.241301332666	1
0	421	18.689441690646	1
0	434	19.196685886673	1
0	437	19.260680479076	1
0	453	19.908820493004	1
0	459	20.085523985928	1
0	474	20.618863051989	1
0	483	21.002204919727	1
0	496	21.49615886774	1
0	505	21.729883515605	1
0	516	22.04131051997	1
0	527	22.384474306346	1
0	530	22.437806494926	1
0	534	22.473269593922	1
0	556	23.737958788614	1
0	562	23.839030784408	1
0	573	24.045537814931	1
0	578	24.143841881387	1
0	583	24.241665964929	1
0	603	24.940209102455	1
0	614	25.445522530906	1
0	623	25.692175836766	1
0	636	27.752647985214	1
0	645	28.06824027448	1
0	653	28.186318529676	1
0	668	28.806050503197	1
0	679	29.251105894698	1
0	690	29.789721338043	1
0	699	30.155244774353	1
0	712	30.664570457319	1
0	723	31.169963546767	1
0	734	31.809414704437	1
0	745	32.917488363115	1
0	756	33.771965545668	1
0	762	33.945393969227	1
0	777	34.634895316535	1
0	783	34.751911043534	1
0	792	34.897990553726	1
0	804	35.103972546069	1
0	818	35.65115813123	1
0	829	36.200131622721	1
0	835	36.396684144832	1
0	850	36.911728193466	1
0	859	37.165428755651	1
0	870	37.373851732618	1
0	883	37.869062682316	1
0	894	39.68706352851	1
0	900	39.868795412679	1
0	913	40.108293486305	1
0	926	41.156585845363	1
0	932	41.343825418174	1
0	947	41.870812093668	1
0	958	42.365449903257	1
0	964	42.477249279608	1
0	967	42.51167229077	1
0	985	42.967026711	1
0	996	43.170273707694	1
0	999	43.194844716823	1
0	1017	43.784250162144	1
0	1028	44.560228244927	1
0	1039	45.139072513158	1
0	1048	45.409351198469	1
0	1056	45.542902693143	1
0	1069	45.84712609909	1
0	1072	45.931188497129	1
0	1077	45.996976103041	1
0	1094	46.251872653239	1
0	1108	46.904918644826	1
0	1114	47.067989289736	1
0	1127	47.448558601082	1
0	1140	47.979369052637	1
0	1146	48.09402978232	1
0	1149	48.177877506787	1
0	1161	48.379366538277	1
0	1171	48.540217258881	1
0	1185	48.86867857187	1
0	1199	49.612424401932	1
0	1208	49.937046356542	1
0	1219	50.318876106972	1
0	1230	50.640188924684	1
0	1243	51.506237768208	1
0	1252	51.754464848584	1
0	1265	53.255670236856	1
0	1276	53.699931448189	1
0	1287	54.425309230288	1
0	1298	55.285869763754	1
0	1301	55.365652597661	1
0	1313	55.626995802367	1
0	1325	56.012359756529	1
0	1336	56.227569729035	1
0	1347	56.48615828454	1
0	1353	56.601972162989	1
0	1366	56.809083156551	1
0	1380	57.978478778173	1
0	1391	58.520216757866	1
0	1402	60.152154452452	1
0	1413	60.8514811157	1
0	1422	61.172536343825	1
0	1435	61.632367857209	1
0	1444	61.951661083941	1
0	1447	62.011651596397	1
0	1461	62.261033366884	1
0	1473	62.746407079284	1
0	1481	62.941175432659	1
0	1487	62.965431129843	1
0	1498	63.174797868258	1
0	1503	63.260404737306	1
0	1514	63.39467751198	1
0	1532	64.429685993405	1
0	1535	64.430027130951	1
0	1545	64.637773564858	1
0	1557	64.865870672952	1
0	1560	64.930075065055	1
0	1575	65.28412421477	1
0	1587	65.742767107144	1
0	1598	66.038679646113	1
0	1601	66.110085768732	1
0	1617	66.567343926462	1
0	1630	66.985249605811	1
0	1633	67.022183169046	1
0	1638	67.138117802583	1
0	1653	67.534748022352	1
0	1656	67.55165035504	1
0	1673	68.156335483514	1
0	1686	69.431311545886	1
0	1689	69.518903486661	1
0	1694	69.546309458498	1
0	1705	69.80930287072	1
0	1719	70.097050207617	1
0	1727	70.285891972194	1
0	1737	70.45288473701	1
0	1740	70.472427475267	1
0	1757	70.903962892667	1
0	1765	71.056044056313	1
0	1781	71.800301003091	1
0	1792	72.21928693575	1
0	1801	72.589688592413	1
0	1809	72.708195256831	1
0	1822	73.062125349313	1
0	1833	73.303636140123	1
0	1836	73.353423138875	1
0	1841	73.409313249151	1
0	1860	73.905084622763	1
0	1873	74.753081387238	1
0	1876	74.844606854044	1
0	1892	76.734725205463	1
0	1901	77.004351597586	1
0	1904	77.044434324571	1
0	1906	77.059352497988	1
0	1928	77.665987014546	1
0	1936	77.817557324154	1
0	1945	77.971000285951	1
0	1961	78.766198825795	1
0	1970	78.995129436332	1
0	1981	79.322130097259	1
0	1994	79.755885295087	1
0	2003	80.072372653855	1
0	2011	80.228198689098	1
0	2020	80.411634083981	1
0	2023	80.42156082726	1
0	2044	81.126029688684	1
0	2055	81.610283855369	1
0	2061	81.73966307863	1
0	2076	82.377098712991	1
0	2079	82.430812339834	1
0	2084	82.483194007148	1
0	2099	82.814122502305	1
0	2113	83.575362682416	1
0	2119	83.699791551646	1
0	2134	84.650157381489	1
0	2145	85.246881439101	1
0	2148	85.335101362154	1
0	2153	85.414192257171	1
0	2160	85.450643777539	1
0	2178	86.062260352588	1
0	2191	86.871519269117	1
0	2200	87.246112891731	1
0	2213	87.920506221185	1
0	2216	87.937564381296	1
0	2221	88.082459565639	1
0	2236	88.412012680978	1
0	2239	88.422409186219	1
0	2254	88.863623283992	1
0	2268	89.433701640783	1
0	2279	90.548490972016	1
0	2290	90.955805534891	1
0	2301	91.572528192519	1
0	2310	91.90496856	1
0	2323	92.460175652502	1
0	2334	93.421118005438	1
0	2343	93.696024584478	1
0	2356	94.147690271375	1
0	2359	94.165159234669	1
0	2364	94.298568949439	1
0	2383	94.977587073646	1
0	2392	95.216718790571	1
0	2395	95.222205747262	1
0	2413	97.167877688066	1
0	2422	97.487317377732	1
0	2430	97.60405095571	1
0	2443	97.938670275877	1
0	2456	98.803743659895	1
0	2459	98.851670952232	1
0	2469	99.020720037482	1
0	2472	99.046653326324	1
0	2479	99.179465994806	1
0	2495	99.521472966865	1
0	2509	100.005247826734	1
0	2520	100.271060261709	1
0	2528	100.444545917569	1
0	2537	100.588029350053	1
0	2540	100.607064694139	1
0	2542	100.623308316933	1
0	2555	100.818093758378	1
0	2571	101.220026851355	1
0	2585	101.844433410707	1
0	2590	101.897542392316	1
0	2606	102.854129679025	1
0	2609	102.858799166068	1
0	2611	102.887378143952	1
0	2616	103.016932148593	1
0	2641	104.184018669793	1
0	2647	104.327572789023	1
0	2656	104.458958434651	1
0	2661	104.538493781877	1
0	2680	105.221578977704	1
0	2683	105.249309562201	1
0	2685	105.261849030065	1
0	2705	105.866109721219	1
0	2718	106.558121787586	1
0	2727	106.762951331286	1
0	2740	107.258640963588	1
0	2746	107.371487914801	1
0	2761	108.133146294166	1
0	2770	108.429889874138	1
0	2773	108.447730554846	1
0	2780	108.565471297752	1
0	2795	108.848248709705	1
0	2809	109.612218602434	1
0	2812	109.705175584916	1
0	2824	109.969450349527	1
0	2838	110.494897534982	1
0	2847	110.885260697494	1
0	2860	111.299284798531	1
0	2871	112.745127675036	1
0	2882	113.358422264748	1
0	2888	113.533667711203	1
0	2899	113.757618865756	1
0	2907	113.85939290652	1
0	2921	114.257334051036	1
0	2934	115.797212681212	1
0	2940	115.971635110877	1
0	2953	116.325430268311	1
0	2966	117.553997113176	1
0	2977	119.153932154585	1
0	2986	119.537019121046	1
0	2999	120.922240730021	1
0	3008	121.192052899396	1
0	3021	121.680505829645	1
0	3027	121.798997366774	1
0	3030	121.806827837673	1
0	3038	121.914959390082	1
0	3054	122.29451635825	1
0	3064	122.589452888468	1
0	3072	122.704290676989	1
0	3086	123.147868452377	1
0	3089	123.20331391948	1
0	3103	123.522458015038	1
0	3111	123.704905331178	1
0	3121	123.89701473374	1
0	3128	123.986318908437	1
0	3143	124.399434131927	1
0	3156	124.981231574923	1
0	3167	125.893469488036	1
0	3178	126.981809203122	1
0	3187	127.273575020713	1
0	3190	127.284277901139	1
0	3208	128.13647890578	1
0	3214	128.254798803871	1
0	3220	128.340902914352	1
0	3229	128.464709355551	1
0	3247	129.159621075376	1
0	3250	129.221034357761	1
0	3260	129.377658282968	1
0	3276	130.588129150875	1
0	3287	131.060653363518	1
0	3293	131.174454587913	1
0	3306	131.659080016908	1
0	3314	131.835218285216	1
0	3329	132.459696954916	1
0	3332	132.479767821588	1
0	3337	132.574349193516	1
0	3344	132.683141281058	1
0	3360	133.111122712128	1
0	3374	133.968756558855	1
0	3385	134.94910545608	1
0	3396	136.283640438111	1
0	3402	136.388222685371	1
0	3415	136.815100491425	1
0	3418	136.838759838763	1
0	3425	136.979640172701	1
0	3436	137.116862424201	1
0	3439	137.14133012002	1
0	3452	137.376265899382	1
0	3470	138.175591900936	1
0	3473	138.178772922151	1
0	3477	138.246207082975	1
0	3497	138.837035273188	1
0	3503	138.962672028848	1
0	3514	139.066568437633	1
0	3526	139.384378821353	1
0	3540	139.862589780963	1
0	3546	139.978879089993	1
0	3561	140.683994943604	1
0	3572	141.428897125292	1
0	3581	141.744116461981	1
0	3592	142.023151178848	1
0	3603	142.302960857826	1
0	3614	142.568155037939	1
0	3617	142.631328333448	1
0	3635	143.57397012682	1
0	3646	144.047182057575	1
0	3657	145.034488672022	1
0	3663	145.146686996899	1
0	3672	145.257319338663	1
0	3684	145.479771113812	1
0	3687	145.48734920332	1
0	3702	145.892561731259	1
0	3714	146.33637808106	1
0	3717	146.388598467841	1
0	3724	146.514791599786	1
0	3743	147.742749510869	1
0	3746	147.748513422522	1
0	3756	147.967427176764	1
0	3759	148.008298031858	1
0	3772	148.247051383303	1
0	3784	148.46414147325	1
0	3792	148.564587818961	1
0	3795	148.615970441581	1
0	3802	148.678502578883	1
0	3810	148.771320293822	1
0	3826	149.317441130744	1
0	3840	149.864124834049	1
0	3854	150.628060541527	1
0	3863	150.871353604409	1
0	3874	151.104166173655	1
0	3877	151.152360182488	1
0	3884	151.273073186536	1
0	3891	151.370066770907	1
0	3897	151.410948184407	1
0	3919	152.476044642512	1
0	3922	152.501502723317	1
0	3924	152.504673155195	1
0	3926	152.561191938956	1
0	3946	152.971937677495	1
0	3964	154.208373278086	1
0	3975	154.622248205232	1
0	3986	155.240550302377	1
0	3997	155.696638245547	1
0	4003	155.851648056291	1
0	4016	156.196893531361	1
0	4027	156.422187265217	1
0	4040	157.0361573841	1
0	4049	157.334048112292	1
0	4062	158.024093533066	1
0	4071	158.356832448168	1
0	4084	158.773153991685	1
0	4095	159.403650143764	1
0	4098	159.482854770587	1
0	4103	159.52952821172	1
0	4120	160.047777827415	1
0	4131	160.288063790312	1
0	4137	160.422091847502	1
0	4152	160.744769890149	1
0	4165	161.481510986866	1
0	4176	162.459320428665	1
0	4185	162.797063968124	1
0	4198	163.827965015833	1
0	4201	163.863614510136	1
0	4211	164.124384980854	1
0	4227	165.091817755892	1
0	4230	165.139000962608	1
0	4240	165.387298759466	1
0	4254	165.871551056059	1
0	4267	167.01675745631	1
0	4276	167.298353588089	1
0	4279	167.314887557663	1
0	4281	167.359531565851	1
0	4286	167.405002889628	1
0	4311	168.25976514105	1
0	4324	168.82354054023	1
0	4327	168.851337263316	1
0	4329	168.868407408278	1
0	4339	169.097816283934	1
0	4353	169.338089539787	1
0	4365	169.80880575553	1
0	4379	170.486120205415	1
0	4382	170.584841173116	1
0	4394	170.802179142376	1
0	4397	170.858619000276	1
0	4404	170.942887224395	1
0	4422	171.648923954937	1
0	4435	172.390575197793	1
0	4444	172.713125512117	1
0	4447	172.758503341327	1
0	4454	172.860193065171	1
0	4461	172.996074455935	1
0	4477	173.32584931017	1
0	4480	173.423682396274	1
0	4499	174.123967256089	1
0	4508	174.373615168716	1
0	4521	175.306767863598	1
0	4527	175.460791979602	1
0	4540	175.856153531175	1
0	4553	176.815326004806	1
0	4564	177.447836871123	1
0	4575	178.063852692069	1
0	4586	178.542995101944	1
0	4597	179.032326251262	1
0	4606	179.247223707354	1
0	4609	179.307507959945	1
0	4614	179.419444195095	1
0	4631	179.797960024714	1
0	4643	180.115040910258	1
0	4656	180.877895637426	1
0	4667	181.913252434891	1
0	4678	182.942844457286	1
0	4687	183.299097324286	1
0	4700	183.733230373983	1
0	4709	183.97744950655	1
0	4715	184.097340289001	1
0	4730	184.432972113208	1
0	4736	184.562599721327	1
0	4749	184.787638718844	1
0	4761	185.191306063498	1
0	4769	185.312474835585	1
0	4784	185.828005602427	1
0	4787	185.861442581021	1
0	4792	186.007318081689	1
0	4811	187.093994799672	1
0	4822	187.547229821973	1
0	4828	187.651540846162	1
0	4839	187.934028502319	1
0	4842	187.939455048798	1
0	4861	188.646795098448	1
0	4870	188.865385119174	1
0	4883	189.325302803464	1
0	4886	189.352556016448	1
0	4902	190.316184358037	1
0	4911	190.611920439295	1
0	4914	190.663026343556	1
0	4926	190.858293003225	1
0	4942	191.590658985363	1
0	4948	191.697431638651	1
0	4963	192.882117461016	1
0	4972	193.213825360289	1
0	4983	193.554795959848	1
0	4988	193.651410324509	1
0	4990	193.653071782075	1
0	4995	193.721438841382	1
0	4997	193.735073517768	1
0	5018	194.138030261727	1
0	5030	194.350758735093	1
0	5038	194.494595404979	1
0	5050	194.739795776724	1
0	5068	195.641492800123	1
0	5077	195.901261159877	1
0	5090	196.322240627832	1
0	5101	196.779794361951	1
0	5112	197.696255013621	1
0	5123	198.258676633421	1
0	5129	198.364762854745	1
0	5144	199.052429865912	1
0	5150	199.172354445432	1
0	5159	199.342402745061	1
0	5175	199.925782339005	1
1	2	0.893448103126	1
1	13	2.072042711789	1
1	19	2.233417461	1
1	25	2.327405932924	1
1	42	3.016066061121	1
1	45	3.042630803465	1
1	47	3.059667154385	2
1	57	3.244550807095	1
1	59	3.29011253847	2
1	85	4.970763783001	1
1	94	5.332362497513	1
1	99	5.374271967556	1
1	111	5.67612559335	1
1	123	6.05120654375	1
1	134	6.268275796548	1
1	145	6.570622391837	1
1	153	6.734055085235	1
1	166	6.997810634845	1
1	177	7.387505106344	1
1	190	8.085171481721	1
1	199	8.315773521834	1
1	212	8.878393520259	1
1	223	9.410937402142	1
1	229	9.608639916801	1
1	242	9.900594602178	1
1	248	10.010271349506	1
1	263	10.356186008473	1
1	266	10.423844746057	1
1	282	10.838500044591	1
1	295	11.353918510787	1
1	306	13.205059562799	1
1	317	14.187332602017	1
1	328	14.872936979291	1
1	337	15.129178718142	1
1	348	15.342407848503	1
1	361	15.796315791807	1
1	372	16.632169603195	1
1	383	17.279401468182	1
1	394	17.973763605817	1
1	403	18.218895562531	1
1	406	18.241301332666	1
1	422	18.689441690646	1
1	435	19.196685886673	1
1	438	19.260680479076	1
1	454	19.908820493004	1
1	460	20.085523985928	1
1	475	20.618863051989	1
1	484	21.002204919727	1
1	497	21.49615886774	1
1	506	21.729883515605	1
1	517	22.04131051997	1
1	528	22.384474306346	1
1	531	22.437806494926	1
1	535	22.473269593922	2
1	557	23.737958788614	1
1	563	23.839030784408	1
1	574	24.045537814931	1
1	579	24.143841881387	1
1	584	24.241665964929	1
1	604	24.940209102455	1
1	615	25.445522530906	1
1	624	25.692175836766	1
1	637	27.752647985214	1
1	646	28.06824027448	1
1	654	28.186318529676	1
1	669	28.806050503197	1
1	680	29.251105894698	1
1	691	29.789721338043	1
1	700	30.155244774353	1
1	713	30.664570457319	1
1	724	31.169963546767	1
1	735	31.809414704437	1
1	746	32.917488363115	1
1	757	33.771965545668	1
1	763	33.945393969227	1
1	778	34.634895316535	1
1	784	34.751911043534	1
1	793	34.897990553726	1
1	805	35.103972546069	1
1	819	35.65115813123	1
1	830	36.200131622721	1
1	836	36.396684144832	1
1	851	36.911728193466	1
1	860	37.165428755651	1
1	871	37.373851732618	1
1	884	37.869062682316	1
1	895	39.68706352851	1
1	901	39.868795412679	1
1	914	40.108293486305	1
1	927	41.156585845363	1
1	933	41.343825418174	1
1	948	41.870812093668	1
1	959	42.365449903257	1
1	965	42.477249279608	1
1	968	42.51167229077	1
1	986	42.967026711	1
1	997	43.170273707694	1
1	1000	43.194844716823	1
1	1018	43.784250162144	1
1	1029	44.560228244927	1
1	1040	45.139072513158	1
1	1049	45.409351198469	1
1	1057	45.542902693143	1
1	1070	45.84712609909	1
1	1073	45.931188497129	1
1	1078	45.996976103041	1
1	1095	46.251872653239	1
1	1109	46.904918644826	1
1	1115	47.067989289736	1
1	1128	47.448558601082	1
1	1141	47.979369052637	1
1	1147	48.09402978232	1
1	1150	48.177877506787	1
1	1162	48.379366538277	1
1	1172	48.540217258881	1
1	1186	48.86867857187	1
1	1200	49.612424401932	1
1	1209	49.937046356542	1
1	1220	50.318876106972	1
1	1231	50.640188924684	1
1	1244	51.506237768208	1
1	1253	51.754464848584	1
1	1266	53.255670236856	1
1	1277	53.699931448189	1
1	1288	54.425309230288	1
1	1299	55.285869763754	1
1	1302	55.365652597661	1
1	1314	55.626995802367	1
1	1326	56.012359756529	1
1	1337	56.227569729035	1
1	1348	56.48615828454	1
1	1354	56.601972162989	1
1	1367	56.809083156551	1
1	1381	57.978478778173	1
1	1392	58.520216757866	1
1	1403	60.152154452452	1
1	1414	60.8514811157	1
1	1423	61.172536343825	1
1	1436	61.632367857209	1
1	1445	61.951661083941	1
1	1448	62.011651596397	1
1	1462	62.261033366884	1
1	1474	62.746407079284	1
1	1482	62.941175432659	1
1	1488	62.965431129843	1
1	1499	63.174797868258	1
1	1504	63.260404737306	1
1	1515	63.39467751198	1
1	1533	64.429685993405	1
1	1536	64.430027130951	1
1	1546	64.637773564858	1
1	1558	64.865870672952	1
1	1561	64.930075065055	1
1	1576	65.28412421477	1
1	1588	65.742767107144	1
1	1599	66.038679646113	1
1	1602	66.110085768732	1
1	1618	66.567343926462	1
1	1631	66.985249605811	1
1	1634	67.022183169046	1
1	1639	67.138117802583	1
1	1654	67.534748022352	1
1	1657	67.55165035504	1
1	1674	68.156335483514	1
1	1687	69.431311545886	1
1	1690	69.518903486661	1
1	1695	69.546309458498	1
1	1706	69.80930287072	1
1	1720	70.097050207617	1
1	1728	70.285891972194	1
1	1738	70.45288473701	1
1	1741	70.472427475267	1
1	1758	70.903962892667	1
1	1766	71.056044056313	1
1	1782	71.800301003091	1
1	1793	72.21928693575	1
1	1802	72.589688592413	1
1	1810	72.708195256831	1
1	1823	73.062125349313	1
1	1834	73.303636140123	1
1	1837	73.353423138875	1
1	1842	73.409313249151	1
1	1861	73.905084622763	1
1	1874	74.753081387238	1
1	1877	74.844606854044	1
1	1893	76.734725205463	1
1	1902	77.004351597586	1
1	1905	77.044434324571	1
1	1907	77.059352497988	2
1	1929	77.665987014546	1
1	1937	77.817557324154	1
1	1946	77.971000285951	1
1	1962	78.766198825795	1
1	1971	78.995129436332	1
1	1982	79.322130097259	1
1	1995	79.755885295087	1
1	2004	80.072372653855	1
1	2012	80.228198689098	1
1	2021	80.411634083981	1
1	2024	80.42156082726	1
1	2045	81.126029688684	1
1	2056	81.610283855369	1
1	2062	81.73966307863	1
1	2077	82.377098712991	1
1	2080	82.430812339834	1
1	2085	82.483194007148	1
1	2100	82.814122502305	1
1	2114	83.575362682416	1
1	2120	83.699791551646	1
1	2135	84.650157381489	1
1	2146	85.246881439101	1
1	2149	85.335101362154	1
1	2154	85.414192257171	1
1	2161	85.450643777539	1
1	2179	86.062260352588	1
1	2192	86.871519269117	1
1	2201	87.246112891731	1
1	2214	87.920506221185	1
1	2217	87.937564381296	1
1	2222	88.082459565639	1
1	2237	88.412012680978	1
1	2240	88.422409186219	1
1	2255	88.863623283992	1
1	2269	89.433701640783	1
1	2280	90.548490972016	1
1	2291	90.955805534891	1
1	2302	91.572528192519	1
1	2311	91.90496856	1
1	2324	92.460175652502	1
1	2335	93.421118005438	1
1	2344	93.696024584478	1
1	2357	94.147690271375	1
1	2360	94.165159234669	1
1	2365	94.298568949439	1
1	2384	94.977587073646	1
1	2393	95.216718790571	1
1	2396	95.222205747262	1
1	2414	97.167877688066	1
1	2423	97.487317377732	1
1	2431	97.60405095571	1
1	2444	97.938670275877	1
1	2457	98.803743659895	1
1	2460	98.851670952232	1
1	2470	99.020720037482	1
1	2473	99.046653326324	1
1	2480	99.179465994806	1
1	2496	99.521472966865	1
1	2510	100.005247826734	1
1	2521	100.271060261709	1
1	2529	100.444545917569	1
1	2538	100.588029350053	1
1	2541	100.607064694139	1
1	2543	100.623308316933	2
1	2556	100.818093758378	1
1	2572	101.220026851355	1
1	2586	101.844433410707	1
1	2591	101.897542392316	1
1	2607	102.854129679025	1
1	2610	102.858799166068	1
1	2612	102.887378143952	2
1	2617	103.016932148593	2
1	2642	104.184018669793	1
1	2648	104.327572789023	1
1	2657	104.458958434651	1
1	2662	104.538493781877	1
1	2681	105.221578977704	1
1	2684	105.249309562201	1
1	2686	105.261849030065	2
1	2706	105.866109721219	1
1	2719	106.558121787586	1
1	2728	106.762951331286	1
1	2741	107.258640963588	1
1	2747	107.371487914801	1
1	2762	108.133146294166	1
1	2771	108.429889874138	1
1	2774	108.447730554846	1
1	2781	108.565471297752	1
1	2796	108.848248709705	1
1	2810	109.612218602434	1
1	2813	109.705175584916	1
1	2825	109.969450349527	1
1	2839	110.494897534982	1
1	2848	110.885260697494	1
1	2861	111.299284798531	1
1	2872	112.745127675036	1
1	2883	113.358422264748	1
1	2889	113.533667711203	1
1	2900	113.757618865756	1
1	2908	113.85939290652	1
1	2922	114.257334051036	1
1	2935	115.797212681212	1
1	2941	115.971635110877	1
1	2954	116.325430268311	1
1	2967	117.553997113176	1
1	2978	119.153932154585	1
1	2987	119.537019121046	1
1	3000	120.922240730021	1
1	3009	121.192052899396	1
1	3022	121.680505829645	1
1	3028	121.798997366774	1
1	3031	121.806827837673	1
1	3039	121.914959390082	1
1	3055	122.29451635825	1
1	3065	122.589452888468	1
1	3073	122.704290676989	1
1	3087	123.147868452377	1
1	3090	123.20331391948	1
1	3104	123.522458015038	1
1	3112	123.704905331178	1
1	3122	123.89701473374	1
1	3129	123.986318908437	1
1	3144	124.399434131927	1
1	3157	124.981231574923	1
1	3168	125.893469488036	1
1	3179	126.981809203122	1
1	3188	127.273575020713	1
1	3191	127.284277901139	1
1	3209	128.13647890578	1
1	3215	128.254798803871	1
1	3221	128.340902914352	1
1	3230	128.464709355551	1
1	3248	129.159621075376	1
1	3251	129.221034357761	1
1	3261	129.377658282968	1
1	3277	130.588129150875	1
1	3288	131.060653363518	1
1	3294	131.174454587913	1
1	3307	131.659080016908	1
1	3315	131.835218285216	1
1	3330	132.459696954916	1
1	3333	132.479767821588	1
1	3338	132.574349193516	1
1	3345	132.683141281058	1
1	3361	133.111122712128	1
1	3375	133.968756558855	1
1	3386	134.94910545608	1
1	3397	136.283640438111	1
1	3403	136.388222685371	1
1	3416	136.815100491425	1
1	3419	136.838759838763	1
1	3426	136.979640172701	1
1	3437	137.116862424201	1
1	3440	137.14133012002	1
1	3453	137.376265899382	1
1	3471	138.175591900936	1
1	3474	138.178772922151	1
1	3478	138.246207082975	2
1	3498	138.837035273188	1
1	3504	138.962672028848	1
1	3515	139.066568437633	1
1	3527	139.384378821353	1
1	3541	139.862589780963	1
1	3547	139.978879089993	1
1	3562	140.683994943604	1
1	3573	141.428897125292	1
1	3582	141.744116461981	1
1	3593	142.023151178848	1
1	3604	142.302960857826	1
1	3615	142.568155037939	1
1	3618	142.631328333448	1
1	3636	143.57397012682	1
1	3647	144.047182057575	1
1	3658	145.034488672022	1
1	3664	145.146686996899	1
1	3673	145.257319338663	1
1	3685	145.479771113812	1
1	3688	145.48734920332	1
1	3703	145.892561731259	1
1	3715	146.33637808106	1
1	3718	146.388598467841	1
1	3725	146.514791599786	1
1	3744	147.742749510869	1
1	3747	147.748513422522	1
1	3757	147.967427176764	1
1	3760	148.008298031858	1
1	3773	148.247051383303	1
1	3785	148.46414147325	1
1	3793	148.564587818961	1
1	3796	148.615970441581	1
1	3803	148.678502578883	1
1	3811	148.771320293822	1
1	3827	149.317441130744	1
1	3841	149.864124834049	1
1	3855	150.628060541527	1
1	3864	150.871353604409	1
1	3875	151.104166173655	1
1	3878	151.152360182488	1
1	3885	151.273073186536	1
1	3892	151.370066770907	1
1	3898	151.410948184407	1
1	3920	152.476044642512	1
1	3923	152.501502723317	1
1	3925	152.504673155195	2
1	3927	152.561191938956	3
1	3947	152.971937677495	1
1	3965	154.208373278086	1
1	3976	154.622248205232	1
1	3987	155.240550302377	1
1	3998	155.696638245547	1
1	4004	155.851648056291	1
1	4017	156.196893531361	1
1	4028	156.422187265217	1
1	4041	157.0361573841	1
1	4050	157.334048112292	1
1	4063	158.024093533066	1
1	4072	158.356832448168	1
1	4085	158.773153991685	1
1	4096	159.403650143764	1
1	4099	159.482854770587	1
1	4104	159.52952821172	1
1	4121	160.047777827415	1
1	4132	160.288063790312	1
1	4138	160.422091847502	1
1	4153	160.744769890149	1
1	4166	161.481510986866	1
1	4177	162.459320428665	1
1	4186	162.797063968124	1
1	4199	163.827965015833	1
1	4202	163.863614510136	1
1	4212	164.124384980854	1
1	4228	165.091817755892	1
1	4231	165.139000962608	1
1	4241	165.387298759466	1
1	4255	165.871551056059	1
1	4268	167.01675745631	1
1	4277	167.298353588089	1
1	4280	167.314887557663	1
1	4282	167.359531565851	2
1	4287	167.405002889628	2
1	4312	168.25976514105	1
1	4325	168.82354054023	1
1	4328	168.851337263316	1
1	4330	168.868407408278	2
1	4340	169.097816283934	1
1	4354	169.338089539787	1
1	4366	169.80880575553	1
1	4380	170.486120205415	1
1	4383	170.584841173116	1
1	4395	170.802179142376	1
1	4398	170.858619000276	1
1	4405	170.942887224395	1
1	4423	171.648923954937	1
1	4436	172.390575197793	1
1	4445	172.713125512117	1
1	4448	172.758503341327	1
1	4455	172.860193065171	1
1	4462	172.996074455935	1
1	4478	173.32584931017	1
1	4481	173.423682396274	1
1	4500	174.123967256089	1
1	4509	174.373615168716	1
1	4522	175.306767863598	1
1	4528	175.460791979602	1
1	4541	175.856153531175	1
1	4554	176.815326004806	1
1	4565	177.447836871123	1
1	4576	178.063852692069	1
1	4587	178.542995101944	1
1	4598	179.032326251262	1
1	4607	179.247223707354	1
1	4610	179.307507959945	1
1	4615	179.419444195095	1
1	4632	179.797960024714	1
1	4644	180.115040910258	1
1	4657	180.877895637426	1
1	4668	181.913252434891	1
1	4679	182.942844457286	1
1	4688	183.299097324286	1
1	4701	183.733230373983	1
1	4710	183.97744950655	1
1	4716	184.097340289001	1
1	4731	184.432972113208	1
1	4737	184.562599721327	1
1	4750	184.787638718844	1
1	4762	185.191306063498	1
1	4770	185.312474835585	1
1	4785	185.828005602427	1
1	4788	185.861442581021	1
1	4793	186.007318081689	1
1	4812	187.093994799672	1
1	4823	187.547229821973	1
1	4829	187.651540846162	1
1	4840	187.934028502319	1
1	4843	187.939455048798	1
1	4862	188.646795098448	1
1	4871	188.865385119174	1
1	4884	189.325302803464	1
1	4887	189.352556016448	1
1	4903	190.316184358037	1
1	4912	190.611920439295	1
1	4915	190.663026343556	1
1	4927	190.858293003225	1
1	4943	191.590658985363	1
1	4949	191.697431638651	1
1	4964	192.882117461016	1
1	4973	193.213825360289	1
1	4984	193.554795959848	1
1	4989	193.651410324509	1
1	4991	193.653071782075	2
1	4996	193.721438841382	2
1	4998	193.735073517768	3
1	5019	194.138030261727	1
1	5031	194.350758735093	1
1	5039	194.494595404979	1
1	5051	194.739795776724	1
1	5069	195.641492800123	1
1	5078	195.901261159877	1
1	5091	196.322240627832	1
1	5102	196.779794361951	1
1	5113	197.696255013621	1
1	5124	198.258676633421	1
1	5130	198.364762854745	1
1	5145	199.052429865912	1
1	5151	199.172354445432	1
1	5160	199.342402745061	1
1	5176	199.925782339005	1
2	5	0.993548103126	1
2	16	2.172142711789	1
2	27	2.333517461	1
2	30	2.433517461	1
2	49	3.116166061121	1
2	52	3.216166061121	1
2	61	3.316166061121	1
2	65	3.416166061121	1
2	71	3.516166061121	1
2	88	5.070863783001	1
2	101	5.432462497513	1
2	104	5.532462497513	1
2	116	5.77622559335	1
2	128	6.15130654375	1
2	137	6.368375796548	1
2	150	6.670722391837	1
2	159	6.834155085235	1
2	169	7.097910634845	1
2	182	7.487605106344	1
2	193	8.185271481721	1
2	202	8.415873521834	1
2	215	8.978493520259	1
2	226	9.511037402142	1
2	235	9.708739916801	1
2	245	10.000694602178	1
2	256	10.110371349506	1
2	268	10.456286008473	1
2	273	10.556286008473	1
2	285	10.938600044591	1
2	298	11.454018510787	1
2	309	13.305159562799	1
2	320	14.287432602017	1
2	331	14.973036979291	1
2	340	15.229278718142	1
2	351	15.442507848503	1
2	364	15.896415791807	1
2	375	16.732269603195	1
2	386	17.379501468182	1
2	397	18.073863605817	1
2	408	18.318995562531	1
2	413	18.418995562531	1
2	425	18.789541690646	1
2	440	19.296785886673	1
2	443	19.396785886673	1
2	457	20.008920493004	1
2	466	20.185623985928	1
2	478	20.718963051989	1
2	489	21.102304919727	1
2	500	21.59625886774	1
2	509	21.829983515605	1
2	522	22.14141051997	1
2	537	22.484574306346	1
2	540	22.584574306346	1
2	545	22.684574306346	1
2	560	23.838058788614	1
2	569	23.939130784408	1
2	581	24.145637814931	1
2	586	24.245637814931	1
2	592	24.345637814931	1
2	607	25.040309102455	1
2	618	25.545622530906	1
2	627	25.792275836766	1
2	640	27.852747985214	1
2	651	28.16834027448	1
2	660	28.286418529676	1
2	672	28.906150503197	1
2	683	29.351205894698	1
2	694	29.889821338043	1
2	705	30.255344774353	1
2	716	30.764670457319	1
2	727	31.270063546767	1
2	738	31.909514704437	1
2	749	33.017588363115	1
2	760	33.872065545668	1
2	769	34.045493969227	1
2	781	34.734995316535	1
2	790	34.852011043534	1
2	798	34.998090553726	1
2	808	35.204072546069	1
2	822	35.75125813123	1
2	833	36.300231622721	1
2	842	36.496784144832	1
2	854	37.011828193466	1
2	863	37.265528755651	1
2	874	37.473951732618	1
2	887	37.969162682316	1
2	898	39.78716352851	1
2	907	39.968895412679	1
2	917	40.208393486305	1
2	930	41.256685845363	1
2	939	41.443925418174	1
2	951	41.970912093668	1
2	962	42.465549903257	1
2	973	42.577349279608	1
2	976	42.677349279608	1
2	989	43.067126711	1
2	1002	43.270373707694	1
2	1007	43.370373707694	1
2	1021	43.884350162144	1
2	1032	44.660328244927	1
2	1043	45.239172513158	1
2	1052	45.509451198469	1
2	1063	45.643002693143	1
2	1075	45.94722609909	1
2	1082	46.04722609909	1
2	1087	46.14722609909	1
2	1098	46.351972653239	1
2	1112	47.005018644826	1
2	1121	47.168089289736	1
2	1133	47.548658601082	1
2	1144	48.079469052637	1
2	1155	48.19412978232	1
2	1158	48.29412978232	1
2	1169	48.479466538277	1
2	1179	48.640317258881	1
2	1189	48.96877857187	1
2	1203	49.712524401932	1
2	1214	50.037146356542	1
2	1225	50.418976106972	1
2	1236	50.740288924684	1
2	1247	51.606337768208	1
2	1256	51.854564848584	1
2	1269	53.355770236856	1
2	1280	53.800031448189	1
2	1291	54.525409230288	1
2	1304	55.385969763754	1