version 3
run BaseVersion-18-20240511-20:45:07-11874
attr configname BaseVersion
attr datetime 20240511-20:45:07
attr datetimef 20240511-204507
attr experiment BaseVersion
attr inifile omnetpp.ini
attr iterationvars $genInterval=1
attr iterationvarsd genInterval=1
attr iterationvarsf genInterval=1-
attr measurement $genInterval=1
attr network Network
attr processid 11874
attr repetition 0
attr replication #0
attr resultdir results
attr runnumber 18
attr seedset 18
itervar genInterval 1
config network Network
config sim-time-limit 200s
config Network.nodeTx.gen.generationInterval exponential(1)
config Network.nodeTx.gen.packetByteSize 12500
config Network.nodeTx.queue.bufferSize 200
config Network.nodeRx.queue.bufferSize 200
config Network.queue.bufferSize 200

vector 0 Network.nodeTx.gen packetGen ETV
vector 1 Network.nodeTx.queue bufferSize ETV
vector 2 Network.queue bufferSize ETV
vector 3 Network.nodeRx.queue bufferSize ETV
vector 4 Network.nodeRx.sink Delay ETV
vector 5 Network.nodeRx.sink packetUsed ETV
0	1	1.05089196372	1
0	4	1.129946824883	1
0	20	1.834060672312	1
0	31	2.400796351696	1
0	42	4.509472910977	1
0	51	4.789912975802	1
0	62	4.99061060946	1
0	75	7.380665215926	1
0	86	9.292784243635	1
0	95	9.520905665386	1
0	108	10.907745341596	1
0	111	10.919318785571	1
0	127	12.016237513911	1
0	138	12.572917699836	1
0	149	16.987091475029	1
0	160	17.829066270616	1
0	169	18.126083006804	1
0	182	20.020738919878	1
0	185	20.049453176764	1
0	201	23.913280791288	1
0	212	24.923110846198	1
0	221	25.31370505773	1
0	234	27.193066271011	1
0	245	28.002097163697	1
0	256	29.334565003912	1
0	267	30.236762260166	1
0	270	30.25778889083	1
0	282	30.598327007211	1
0	290	30.716663713572	1
0	306	31.726023680856	1
0	315	32.079452102603	1
0	326	32.30704555372	1
0	339	33.468502409031	1
0	348	33.804477515397	1
0	361	35.782273048443	1
0	372	36.755509127746	1
0	381	36.976947082072	1
0	394	37.475157633821	1
0	405	38.545733715142	1
0	416	39.355534662889	1
0	427	40.558360206701	1
0	438	42.919951818346	1
0	449	43.354422243728	1
0	460	44.090454208667	1
0	471	45.6509141026	1
0	482	48.443672719274	1
0	493	50.125939078819	1
0	504	51.462129301926	1
0	513	51.682054641279	1
0	524	51.989555710124	1
0	537	54.974452847391	1
0	548	55.527066809948	1
0	559	56.174476836262	1
0	570	59.711096794168	1
0	581	60.809510150004	1
0	590	61.020348364593	1
0	601	61.257732887128	1
0	614	62.031947645686	1
0	625	63.679743538941	1
0	636	64.347747924333	1
0	645	64.732948923277	1
0	658	66.221730999114	1
0	667	66.569780350906	1
0	680	67.780239262378	1
0	689	68.139658213441	1
0	702	70.011216687684	1
0	713	71.770834688527	1
0	724	72.561489408463	1
0	735	73.36564344243	1
0	746	73.813811850777	1
0	755	74.02660589396	1
0	768	75.63104391856	1
0	779	76.883705468958	1
0	790	79.783913458822	1
0	801	80.805204640749	1
0	812	81.627886013298	1
0	823	82.389748600215	1
0	834	84.020610131802	1
0	845	84.870476415719	1
0	856	86.249443825601	1
0	859	86.261853041501	1
0	864	86.43791318381	1
0	883	87.626137227803	1
0	894	89.646092670997	1
0	905	90.41107793087	1
0	916	91.046337717632	1
0	919	91.12877924144	1
0	935	94.340243115657	1
0	938	94.353974463022	1
0	954	95.046512812446	1
0	963	95.372039422417	1
0	976	96.770263553741	1
0	987	102.716862517922	1
0	998	103.526670252603	1
0	1007	103.782337826953	1
0	1010	103.845739109292	1
0	1017	103.956687827273	1
0	1024	104.077469197049	1
0	1030	104.093904295964	1
0	1048	104.757477180287	1
0	1060	105.175461506587	1
0	1073	105.809894776097	1
0	1084	107.46118677629	1
0	1093	107.707230436757	1
0	1104	107.952261311635	1
0	1107	107.98853150051	1
0	1125	110.715840504168	1
0	1136	111.168743411128	1
0	1147	115.633967045261	1
0	1150	115.691004413694	1
0	1152	115.702082237473	1
0	1174	117.101955663197	1
0	1185	118.638620712614	1
0	1196	119.041894806744	1
0	1207	120.198232446773	1
0	1218	121.671653977334	1
0	1229	122.396589054722	1
0	1240	123.051909689827	1
0	1249	123.365406339528	1
0	1262	123.765920986073	1
0	1273	124.858893608768	1
0	1284	125.843615126018	1
0	1295	127.344756876037	1
0	1306	127.902615222211	1
0	1317	128.548241053261	1
0	1326	128.837336904341	1
0	1339	133.242529146249	1
0	1345	133.388248659635	1
0	1360	134.073914664863	1
0	1371	135.505951099574	1
0	1382	136.619236775831	1
0	1393	139.115989602433	1
0	1404	139.678563503964	1
0	1413	139.896620003306	1
0	1424	140.199047238658	1
0	1437	141.377184886793	1
0	1448	144.263101156488	1
0	1459	144.930806410164	1
0	1470	146.092778086181	1
0	1473	146.108247832852	1
0	1489	147.186044470814	1
0	1500	147.80592894933	1
0	1503	147.841938462766	1
0	1519	148.561014463187	1
0	1530	150.927591706651	1
0	1539	151.173857125252	1
0	1552	151.716423397053	1
0	1563	152.804756679212	1
0	1574	153.450912444931	1
0	1585	154.346968127436	1
0	1591	154.492726785898	1
0	1606	155.190032337814	1
0	1617	155.639830064625	1
0	1628	157.366412326464	1
0	1637	157.761180377272	1
0	1648	157.997819444363	1
0	1654	158.158009136515	1
0	1669	158.436411887727	1
0	1682	160.025487031257	1
0	1693	163.536283405653	1
0	1704	164.277029902292	1
0	1715	165.349501967665	1
0	1726	167.595463976644	1
0	1737	168.770903967482	1
0	1748	170.352803179675	1
0	1759	174.79934584492	1
0	1770	175.791851357519	1
0	1781	177.155918947328	1
0	1784	177.225405142621	1
0	1800	178.065745602036	1
0	1811	179.613477203704	1
0	1822	180.27620130825	1
0	1833	180.752506389268	1
0	1842	181.099009454215	1
0	1855	181.735062724347	1
0	1866	182.411467892481	1
0	1869	182.493872449384	1
0	1885	183.407187954143	1
0	1891	183.573734339626	1
0	1906	186.042575651492	1
0	1917	186.516080115342	1
0	1923	186.703358330625	1
0	1938	187.136071454889	1
0	1949	187.665925582513	1
0	1952	187.714596103488	1
0	1968	190.342115062562	1
0	1977	190.61303859618	1
0	1988	190.977083673129	1
0	1999	191.195793251101	1
0	2012	191.823806392366	1
0	2023	192.312300956192	1
0	2034	193.005290466026	1
0	2045	194.799798475917	1
0	2056	196.323470218992	1
0	2067	197.814886398965	1
0	2070	197.82522596454	1
0	2086	199.452493043558	1
1	2	1.05089196372	1
1	5	1.129946824883	1
1	21	1.834060672312	1
1	32	2.400796351696	1
1	43	4.509472910977	1
1	52	4.789912975802	1
1	63	4.99061060946	1
1	76	7.380665215926	1
1	87	9.292784243635	1
1	96	9.520905665386	1
1	109	10.907745341596	1
1	112	10.919318785571	1
1	128	12.016237513911	1
1	139	12.572917699836	1
1	150	16.987091475029	1
1	161	17.829066270616	1
1	170	18.126083006804	1
1	183	20.020738919878	1
1	186	20.049453176764	1
1	202	23.913280791288	1
1	213	24.923110846198	1
1	222	25.31370505773	1
1	235	27.193066271011	1
1	246	28.002097163697	1
1	257	29.334565003912	1
1	268	30.236762260166	1
1	271	30.25778889083	1
1	283	30.598327007211	1
1	291	30.716663713572	1
1	307	31.726023680856	1
1	316	32.079452102603	1
1	327	32.30704555372	1
1	340	33.468502409031	1
1	349	33.804477515397	1
1	362	35.782273048443	1
1	373	36.755509127746	1
1	382	36.976947082072	1
1	395	37.475157633821	1
1	406	38.545733715142	1
1	417	39.355534662889	1
1	428	40.558360206701	1
1	439	42.919951818346	1
1	450	43.354422243728	1
1	461	44.090454208667	1
1	472	45.6509141026	1
1	483	48.443672719274	1
1	494	50.125939078819	1
1	505	51.462129301926	1
1	514	51.682054641279	1
1	525	51.989555710124	1
1	538	54.974452847391	1
1	549	55.527066809948	1
1	560	56.174476836262	1
1	571	59.711096794168	1
1	582	60.809510150004	1
1	591	61.020348364593	1
1	602	61.257732887128	1
1	615	62.031947645686	1
1	626	63.679743538941	1
1	637	64.347747924333	1
1	646	64.732948923277	1
1	659	66.221730999114	1
1	668	66.569780350906	1
1	681	67.780239262378	1
1	690	68.139658213441	1
1	703	70.011216687684	1
1	714	71.770834688527	1
1	725	72.561489408463	1
1	736	73.36564344243	1
1	747	73.813811850777	1
1	756	74.02660589396	1
1	769	75.63104391856	1
1	780	76.883705468958	1
1	791	79.783913458822	1
1	802	80.805204640749	1
1	813	81.627886013298	1
1	824	82.389748600215	1
1	835	84.020610131802	1
1	846	84.870476415719	1
1	857	86.249443825601	1
1	860	86.261853041501	1
1	865	86.43791318381	1
1	884	87.626137227803	1
1	895	89.646092670997	1
1	906	90.41107793087	1
1	917	91.046337717632	1
1	920	91.12877924144	1
1	936	94.340243115657	1
1	939	94.353974463022	1
1	955	95.046512812446	1
1	964	95.372039422417	1
1	977	96.770263553741	1
1	988	102.716862517922	1
1	999	103.526670252603	1
1	1008	103.782337826953	1
1	1011	103.845739109292	1
1	1018	103.956687827273	1
1	1025	104.077469197049	1
1	1031	104.093904295964	1
1	1049	104.757477180287	1
1	1061	105.175461506587	1
1	1074	105.809894776097	1
1	1085	107.46118677629	1
1	1094	107.707230436757	1
1	1105	107.952261311635	1
1	1108	107.98853150051	1
1	1126	110.715840504168	1
1	1137	111.168743411128	1
1	1148	115.633967045261	1
1	1151	115.691004413694	1
1	1153	115.702082237473	2
1	1175	117.101955663197	1
1	1186	118.638620712614	1
1	1197	119.041894806744	1
1	1208	120.198232446773	1
1	1219	121.671653977334	1
1	1230	122.396589054722	1
1	1241	123.051909689827	1
1	1250	123.365406339528	1
1	1263	123.765920986073	1
1	1274	124.858893608768	1
1	1285	125.843615126018	1
1	1296	127.344756876037	1
1	1307	127.902615222211	1
1	1318	128.548241053261	1
1	1327	128.837336904341	1
1	1340	133.242529146249	1
1	1346	133.388248659635	1
1	1361	134.073914664863	1
1	1372	135.505951099574	1
1	1383	136.619236775831	1
1	1394	139.115989602433	1
1	1405	139.678563503964	1
1	1414	139.896620003306	1
1	1425	140.199047238658	1
1	1438	141.377184886793	1
1	1449	144.263101156488	1
1	1460	144.930806410164	1
1	1471	146.092778086181	1
1	1474	146.108247832852	1
1	1490	147.186044470814	1
1	1501	147.80592894933	1
1	1504	147.841938462766	1
1	1520	148.561014463187	1
1	1531	150.927591706651	1
1	1540	151.173857125252	1
1	1553	151.716423397053	1
1	1564	152.804756679212	1
1	1575	153.450912444931	1
1	1586	154.346968127436	1
1	1592	154.492726785898	1
1	1607	155.190032337814	1
1	1618	155.639830064625	1
1	1629	157.366412326464	1
1	1638	157.761180377272	1
1	1649	157.997819444363	1
1	1655	158.158009136515	1
1	1670	158.436411887727	1
1	1683	160.025487031257	1
1	1694	163.536283405653	1
1	1705	164.277029902292	1
1	1716	165.349501967665	1
1	1727	167.595463976644	1
1	1738	168.770903967482	1
1	1749	170.352803179675	1
1	1760	174.79934584492	1
1	1771	175.791851357519	1
1	1782	177.155918947328	1
1	1785	177.225405142621	1
1	1801	178.065745602036	1
1	1812	179.613477203704	1
1	1823	180.27620130825	1
1	1834	180.752506389268	1
1	1843	181.099009454215	1
1	1856	181.735062724347	1
1	1867	182.411467892481	1
1	1870	182.493872449384	1
1	1886	183.407187954143	1
1	1892	183.573734339626	1
1	1907	186.042575651492	1
1	1918	186.516080115342	1
1	1924	186.703358330625	1
1	1939	187.136071454889	1
1	1950	187.665925582513	1
1	1953	187.714596103488	1
1	1969	190.342115062562	1
1	1978	190.61303859618	1
1	1989	190.977083673129	1
1	2000	191.195793251101	1
1	2013	191.823806392366	1
1	2024	192.312300956192	1
1	2035	193.005290466026	1
1	2046	194.799798475917	1
1	2057	196.323470218992	1
1	2068	197.814886398965	1
1	2071	197.82522596454	1
1	2087	199.452493043558	1
2	7	1.15099196372	1
2	10	1.25099196372	1
2	24	1.934160672312	1
2	35	2.500896351696	1
2	46	4.609572910977	1
2	55	4.890012975802	1
2	66	5.09071060946	1
2	79	7.480765215926	1
2	90	9.392884243635	1
2	99	9.621005665386	1
2	114	11.007845341596	1
2	117	11.107845341596	1
2	131	12.116337513911	1
2	142	12.673017699836	1
2	153	17.087191475029	1
2	164	17.929166270616	1
2	173	18.226183006804	1
2	188	20.120838919878	1
2	191	20.220838919878	1
2	205	24.013380791288	1
2	216	25.023210846198	1
2	227	25.41380505773	1
2	238	27.293166271011	1
2	249	28.102197163697	1
2	260	29.434665003912	1
2	273	30.336862260166	1
2	276	30.436862260166	1
2	288	30.698427007211	1
2	296	30.816763713572	1
2	310	31.826123680856	1
2	321	32.179552102603	1
2	330	32.40714555372	1
2	343	33.568602409031	1
2	354	33.904577515397	1
2	365	35.882373048443	1
2	376	36.855609127746	1
2	385	37.077047082072	1
2	398	37.575257633821	1
2	409	38.645833715142	1
2	420	39.455634662889	1
2	431	40.658460206701	1
2	442	43.020051818346	1
2	453	43.454522243728	1
2	464	44.190554208667	1
2	475	45.7510141026	1
2	486	48.543772719274	1
2	497	50.226039078819	1
2	508	51.562229301926	1
2	517	51.782154641279	1
2	530	52.089655710124	1
2	541	55.074552847391	1
2	552	55.627166809948	1
2	563	56.274576836262	1
2	574	59.811196794168	1
2	585	60.909610150004	1
2	594	61.120448364593	1
2	605	61.357832887128	1
2	618	62.132047645686	1
2	629	63.779843538941	1
2	640	64.447847924333	1
2	651	64.833048923277	1
2	662	66.321830999114	1
2	673	66.669880350906	1
2	684	67.880339262378	1
2	695	68.239758213441	1
2	706	70.111316687684	1
2	717	71.870934688527	1
2	728	72.661589408463	1
2	739	73.46574344243	1
2	750	73.913911850777	1
2	759	74.12670589396	1
2	772	75.73114391856	1
2	783	76.983805468958	1
2	794	79.884013458822	1
2	805	80.905304640749	1
2	816	81.727986013298	1
2	827	82.489848600215	1
2	838	84.120710131802	1
2	849	84.970576415719	1
2	862	86.349543825601	1
2	867	86.449543825601	1
2	872	86.549543825601	1
2	887	87.726237227803	1
2	898	89.746192670997	1
2	909	90.51117793087	1
2	922	91.146437717632	1
2	925	91.246437717632	1
2	941	94.440343115657	1
2	944	94.540343115657	1
2	958	95.146612812446	1
2	969	95.472139422417	1
2	980	96.870363553741	1
2	991	102.816962517922	1
2	1002	103.626770252603	1
2	1013	103.882437826953	1
2	1020	103.982437826953	1
2	1027	104.082437826953	1
2	1033	104.182437826953	1
2	1039	104.282437826953	1
2	1054	104.857577180287	1
2	1066	105.275561506587	1
2	1077	105.909994776097	1
2	1088	107.56128677629	1
2	1097	107.807330436757	1
2	1110	108.052361311635	1
2	1115	108.152361311635	1
2	1129	110.815940504168	1
2	1140	111.268843411128	1
2	1155	115.734067045261	1
2	1158	115.834067045261	1
2	1163	115.934067045261	1
2	1178	117.202055663197	1
2	1189	118.738720712614	1
2	1200	119.141994806744	1
2	1211	120.298332446773	1
2	1222	121.771753977334	1
2	1233	122.496689054722	1
2	1244	123.152009689827	1
2	1255	123.465506339528	1
2	1266	123.866020986073	1
2	1277	124.958993608768	1
2	1288	125.943715126018	1
2	1299	127.444856876037	1
2	1310	128.002715222211	1
2	1321	128.648341053261	1
2	1330	128.937436904341	1
2	1343	133.342629146249	1
2	1352	133.488348659635	1
2	1364	134.174014664863	1
2	1375	135.606051099574	1
2	1386	136.719336775831	1
2	1397	139.216089602433	1
2	1408	139.778663503964	1
2	1417	139.996720003306	1
2	1430	140.299147238658	1
2	1441	141.477284886793	1
2	1452	144.363201156488	1
2	1463	145.030906410164	1
2	1476	146.192878086181	1
2	1479	146.292878086181	1
2	1493	147.286144470814	1
2	1506	147.90602894933	1
2	1509	148.00602894933	1
2	1523	148.661114463187	1
2	1534	151.027691706651	1
2	1543	151.273957125252	1
2	1556	151.816523397053	1
2	1567	152.904856679212	1
2	1578	153.551012444931	1
2	1589	154.447068127436	1
2	1598	154.592826785898	1
2	1610	155.290132337814	1
2	1621	155.739930064625	1
2	1632	157.466512326464	1
2	1643	157.861280377272	1
2	1652	158.097919444363	1
2	1663	158.258109136515	1
2	1673	158.536511887727	1
2	1686	160.125587031257	1
2	1697	163.636383405653	1
2	1708	164.377129902292	1
2	1719	165.449601967665	1
2	1730	167.695563976644	1
2	1741	168.871003967482	1
2	1752	170.452903179675	1
2	1763	174.89944584492	1
2	1774	175.891951357519	1
2	1787	177.256018947328	1
2	1790	177.356018947328	1
2	1804	178.165845602036	1
2	1815	179.713577203704	1
2	1826	180.37630130825	1
2	1837	180.852606389268	1
2	1848	181.199109454215	1
2	1859	181.835162724347	1
2	1872	182.511567892481	1
2	1875	182.611567892481	1
2	1889	183.507287954143	1
2	1898	183.673834339626	1
2	1910	186.142675651492	1
2	1921	186.616180115342	1
2	1930	186.803458330625	1
2	1942	187.236171454889	1
2	1955	187.766025582513	1
2	1958	187.866025582513	1
2	1972	190.442215062562	1
2	1981	190.71313859618	1
2	1994	191.077183673129	1
2	2003	191.295893251101	1
2	2016	191.923906392366	1
2	2027	192.412400956192	1
2	2038	193.105390466026	1
2	2049	194.899898475917	1
2	2060	196.423570218992	1
2	2073	197.914986398965	1
2	2076	198.014986398965	1
2	2090	199.552593043558	1
3	12	1.25109196372	1
3	15	1.35109196372	1
3	27	2.034260672312	1
3	38	2.600996351696	1
3	49	4.709672910977	1
3	60	4.990112975802	1
3	71	5.19081060946	1
3	82	7.580865215926	1
3	93	9.492984243635	1
3	104	9.721105665386	1
3	119	11.107945341596	1
3	122	11.207945341596	1
3	134	12.216437513911	1
3	145	12.773117699836	1
3	156	17.187291475029	1
3	167	18.029266270616	1
3	178	18.326283006804	1
3	193	20.220938919878	1
3	196	20.320938919878	1
3	208	24.113480791288	1
3	219	25.123310846198	1
3	230	25.51390505773	1
3	241	27.393266271011	1
3	252	28.202297163697	1
3	263	29.534765003912	1
3	278	30.436962260166	1
3	281	30.536962260166	1
3	294	30.798527007211	1
3	301	30.916863713572	1
3	313	31.926223680856	1
3	324	32.279652102603	1
3	335	32.50724555372	1
3	346	33.668702409031	1
3	357	34.004677515397	1
3	368	35.982473048443	1
3	379	36.955709127746	1
3	390	37.177147082072	1
3	401	37.675357633821	1
3	412	38.745933715142	1
3	423	39.555734662889	1
3	434	40.758560206701	1
3	445	43.120151818346	1
3	456	43.554622243728	1
3	467	44.290654208667	1
3	478	45.8511141026	1
3	489	48.643872719274	1
3	500	50.326139078819	1
3	511	51.662329301926	1
3	522	51.882254641279	1
3	533	52.189755710124	1
3	544	55.174652847391	1
3	555	55.727266809948	1
3	566	56.374676836262	1
3	577	59.911296794168	1
3	588	61.009710150004	1
3	599	61.220548364593	1
3	610	61.457932887128	1
3	621	62.232147645686	1
3	632	63.879943538941	1
3	643	64.547947924333	1
3	654	64.933148923277	1
3	665	66.421930999114	1
3	676	66.769980350906	1
3	687	67.980439262378	1
3	698	68.339858213441	1
3	709	70.211416687684	1
3	720	71.971034688527	1
3	731	72.761689408463	1
3	742	73.56584344243	1
3	753	74.014011850777	1
3	764	74.22680589396	1
3	775	75.83124391856	1
3	786	77.083905468958	1
3	797	79.984113458822	1
3	808	81.005404640749	1
3	819	81.828086013298	1
3	830	82.589948600215	1
3	841	84.220810131802	1
3	852	85.070676415719	1
3	869	86.449643825601	1
3	874	86.549643825601	1
3	878	86.649643825601	1
3	890	87.826337227803	1
3	901	89.846292670997	1
3	912	90.61127793087	1
3	927	91.246537717632	1
3	930	91.346537717632	1
3	946	94.540443115657	1
3	949	94.640443115657	1
3	961	95.246712812446	1
3	972	95.572239422417	1
3	983	96.970463553741	1
3	994	102.917062517922	1
3	1005	103.726870252603	1
3	1022	103.982537826953	1
3	1029	104.082537826953	1
3	1037	104.182537826953	1
3	1041	104.282537826953	2
3	1045	104.382537826953	2
3	1057	104.957677180287	1
3	1069	105.375661506587	1
3	1080	106.010094776097	1
3	1091	107.66138677629	1
3	1102	107.907430436757	1
3	1117	108.152461311635	1
3	1120	108.252461311635	1
3	1132	110.916040504168	1
3	1143	111.368943411128	1
3	1160	115.834167045261	1
3	1165	115.934167045261	1
3	1169	116.034167045261	1
3	1181	117.302155663197	1
3	1192	118.838820712614	1
3	1203	119.242094806744	1
3	1214	120.398432446773	1
3	1225	121.871853977334	1
3	1236	122.596789054722	1
3	1247	123.252109689827	1
3	1258	123.565606339528	1
3	1269	123.966120986073	1
3	1280	125.059093608768	1
3	1291	126.043815126018	1
3	1302	127.544956876037	1
3	1313	128.102815222211	1
3	1324	128.748441053261	1
3	1335	129.037536904341	1
3	1349	133.442729146249	1
3	1355	133.588448659635	1
3	1367	134.274114664863	1
3	1378	135.706151099574	1
3	1389	136.819436775831	1
3	1400	139.316189602433	1
3	1411	139.878763503964	1
3	1422	140.096820003306	1
3	1433	140.399247238658	1
3	1444	141.577384886793	1
3	1455	144.463301156488	1
3	1466	145.131006410164	1
3	1481	146.292978086181	1
3	1484	146.392978086181	1
3	1496	147.386244470814	1
3	1511	148.00612894933	1
3	1514	148.10612894933	1
3	1526	148.761214463187	1
3	1537	151.127791706651	1
3	1548	151.374057125252	1
3	1559	151.916623397053	1
3	1570	153.004956679212	1
3	1581	153.651112444931	1
3	1595	154.547168127436	1
3	1601	154.692926785898	1
3	1613	155.390232337814	1
3	1624	155.840030064625	1
3	1635	157.566612326464	1
3	1646	157.961380377272	1
3	1660	158.198019444363	1
3	1666	158.358209136515	1
3	1678	158.636611887727	1
3	1689	160.225687031257	1
3	1700	163.736483405653	1
3	1711	164.477229902292	1
3	1722	165.549701967665	1
3	1733	167.795663976644	1
3	1744	168.971103967482	1
3	1755	170.553003179675	1
3	1766	174.99954584492	1
3	1777	175.992051357519	1
3	1792	177.356118947328	1
3	1795	177.456118947328	1
3	1807	178.265945602036	1
3	1818	179.813677203704	1
3	1829	180.47640130825	1
3	1840	180.952706389268	1
3	1851	181.299209454215	1
3	1862	181.935262724347	1
3	1877	182.611667892481	1
3	1880	182.711667892481	1
3	1895	183.607387954143	1
3	1901	183.773934339626	1
3	1913	186.242775651492	1
3	1927	186.716280115342	1
3	1933	186.903558330625	1
3	1945	187.336271454889	1
3	1960	187.866125582513	1
3	1963	187.966125582513	1
3	1975	190.542315062562	1
3	1986	190.81323859618	1
3	1997	191.177283673129	1
3	2008	191.395993251101	1
3	2019	192.024006392366	1
3	2030	192.512500956192	1
3	2041	193.205490466026	1
3	2052	194.999998475917	1
3	2063	196.523670218992	1
3	2078	198.015086398965	1
3	2081	198.115086398965	1
3	2093	199.652693043558	1
4	16	1.45109196372	0.4002
4	18	1.65109196372	0.521145138837
4	29	2.234260672312	0.4002
4	40	2.800996351696	0.4002
4	57	4.909672910977	0.4002
4	68	5.190112975802	0.4002
4	73	5.39081060946	0.4002
4	84	7.780865215926	0.4002
4	101	9.692984243635	0.4002
4	106	9.921105665386	0.4002
4	123	11.307945341596	0.4002
4	125	11.507945341596	0.588626556025
4	136	12.416437513911	0.4002
4	147	12.973117699836	0.4002
4	158	17.387291475029	0.4002
4	175	18.229266270616	0.4002
4	180	18.526283006804	0.4002
4	197	20.420938919878	0.4002
4	199	20.620938919878	0.571485743114
4	210	24.313480791288	0.4002
4	224	25.323310846198	0.4002
4	232	25.71390505773	0.4002
4	243	27.593266271011	0.4002
4	254	28.402297163697	0.4002
4	265	29.734765003912	0.4002
4	285	30.636962260166	0.4002
4	298	30.836962260166	0.579173369336
4	302	31.036962260166	0.438635252955
4	304	31.236962260166	0.520298546594
4	318	32.126223680856	0.4002
4	332	32.479652102603	0.4002
4	337	32.70724555372	0.4002
4	351	33.868702409031	0.4002
4	359	34.204677515397	0.4002
4	370	36.182473048443	0.4002
4	387	37.155709127746	0.4002
4	392	37.377147082072	0.4002
4	403	37.875357633821	0.4002
4	414	38.945933715142	0.4002
4	425	39.755734662889	0.4002
4	436	40.958560206701	0.4002
4	447	43.320151818346	0.4002
4	458	43.754622243728	0.4002
4	469	44.490654208667	0.4002
4	480	46.0511141026	0.4002
4	491	48.843872719274	0.4002
4	502	50.526139078819	0.4002
4	519	51.862329301926	0.4002
4	527	52.082254641279	0.4002
4	535	52.389755710124	0.4002
4	546	55.374652847391	0.4002
4	557	55.927266809948	0.4002
4	568	56.574676836262	0.4002
4	579	60.111296794168	0.4002
4	596	61.209710150004	0.4002
4	607	61.420548364593	0.4002
4	612	61.657932887128	0.4002
4	623	62.432147645686	0.4002
4	634	64.079943538941	0.4002
4	648	64.747947924333	0.4002
4	656	65.133148923277	0.4002
4	670	66.621930999114	0.4002
4	678	66.969980350906	0.4002
4	692	68.180439262378	0.4002
4	700	68.539858213441	0.4002
4	711	70.411416687684	0.4002
4	722	72.171034688527	0.4002
4	733	72.961689408463	0.4002
4	744	73.76584344243	0.4002
4	761	74.214011850777	0.4002
4	766	74.42680589396	0.4002
4	777	76.03124391856	0.4002
4	788	77.283905468958	0.4002
4	799	80.184113458822	0.4002
4	810	81.205404640749	0.4002
4	821	82.028086013298	0.4002
4	832	82.789948600215	0.4002
4	843	84.420810131802	0.4002
4	854	85.270676415719	0.4002
4	876	86.649643825601	0.4002
4	879	86.849643825601	0.5877907841
4	881	87.049643825601	0.611730641791
4	892	88.026337227803	0.4002
4	903	90.046292670997	0.4002
4	914	90.81127793087	0.4002
4	931	91.446537717632	0.4002
4	933	91.646537717632	0.517758476192
4	950	94.740443115657	0.4002
4	952	94.940443115657	0.586468652635
4	966	95.446712812446	0.4002
4	974	95.772239422417	0.4002
4	985	97.170463553741	0.4002
4	996	103.117062517922	0.4002
4	1015	103.926870252603	0.4002
4	1035	104.182537826953	0.4002
4	1043	104.382537826953	0.536798717661
4	1046	104.582537826953	0.62584999968
4	1051	104.782537826953	0.705068629904
4	1058	104.982537826953	0.888633530989
4	1063	105.182537826953	0.425060646666
4	1071	105.575661506587	0.4002
4	1082	106.210094776097	0.4002
4	1099	107.86138677629	0.4002
4	1112	108.107430436757	0.4002
4	1121	108.352461311635	0.4002
4	1123	108.552461311635	0.563929811125
4	1134	111.116040504168	0.4002
4	1145	111.568943411128	0.4002
4	1167	116.034167045261	0.4002
4	1170	116.234167045261	0.543162631567
4	1172	116.434167045261	0.732084807788
4	1183	117.502155663197	0.4002
4	1194	119.038820712614	0.4002
4	1205	119.442094806744	0.4002
4	1216	120.598432446773	0.4002
4	1227	122.071853977334	0.4002
4	1238	122.796789054722	0.4002
4	1252	123.452109689827	0.4002
4	1260	123.765606339528	0.4002
4	1271	124.166120986073	0.4002
4	1282	125.259093608768	0.4002
4	1293	126.243815126018	0.4002
4	1304	127.744956876037	0.4002
4	1315	128.302815222211	0.4002
4	1332	128.948441053261	0.4002
4	1337	129.237536904341	0.4002
4	1356	133.642729146249	0.4002
4	1358	133.842729146249	0.454480486614
4	1369	134.474114664863	0.4002
4	1380	135.906151099574	0.4002
4	1391	137.019436775831	0.4002
4	1402	139.516189602433	0.4002
4	1419	140.078763503964	0.4002
4	1427	140.296820003306	0.4002
4	1435	140.599247238658	0.4002
4	1446	141.777384886793	0.4002
4	1457	144.663301156488	0.4002
4	1468	145.331006410164	0.4002
4	1485	146.492978086181	0.4002
4	1487	146.692978086181	0.584730253329
4	1498	147.586244470814	0.4002
4	1515	148.20612894933	0.4002
4	1517	148.40612894933	0.564190486564
4	1528	148.961214463187	0.4002
4	1545	151.327791706651	0.4002
4	1550	151.574057125252	0.4002
4	1561	152.116623397053	0.4002
4	1572	153.204956679212	0.4002
4	1583	153.851112444931	0.4002
4	1602	154.747168127436	0.4002
4	1604	154.947168127436	0.454441341538
4	1615	155.590232337814	0.4002
4	1626	156.040030064625	0.4002
4	1640	157.766612326464	0.4002
4	1657	158.161380377272	0.4002
4	1667	158.398019444363	0.4002
4	1675	158.598019444363	0.440010307848
4	1680	158.836611887727	0.4002
4	1691	160.425687031257	0.4002
4	1702	163.936483405653	0.4002
4	1713	164.677229902292	0.4002
4	1724	165.749701967665	0.4002
4	1735	167.995663976644	0.4002
4	1746	169.171103967482	0.4002
4	1757	170.753003179675	0.4002
4	1768	175.19954584492	0.4002
4	1779	176.192051357519	0.4002
4	1796	177.556118947328	0.4002
4	1798	177.756118947328	0.530713804707
4	1809	178.465945602036	0.4002
4	1820	180.013677203704	0.4002
4	1831	180.67640130825	0.4002
4	1845	181.152706389268	0.4002
4	1853	181.499209454215	0.4002
4	1864	182.135262724347	0.4002
4	1881	182.811667892481	0.4002
4	1883	183.011667892481	0.517795443097
4	1902	183.807387954143	0.4002
4	1904	184.007387954143	0.433653614517
4	1915	186.442775651492	0.4002
4	1934	186.916280115342	0.4002
4	1936	187.116280115342	0.412921784717
4	1947	187.536271454889	0.4002
4	1964	188.066125582513	0.4002
4	1966	188.266125582513	0.551529479025
4	1983	190.742315062562	0.4002
4	1991	191.01323859618	0.4002
4	2005	191.377283673129	0.4002
4	2010	191.595993251101	0.4002
4	2021	192.224006392366	0.4002
4	2032	192.712500956192	0.4002
4	2043	193.405490466026	0.4002
4	2054	195.199998475917	0.4002
4	2065	196.723670218992	0.4002
4	2082	198.215086398965	0.4002
4	2084	198.415086398965	0.589860434425
4	2095	199.852693043558	0.4002
5	16	1.45109196372	1
5	18	1.65109196372	1
5	29	2.234260672312	1
5	40	2.800996351696	1
5	57	4.909672910977	1
5	68	5.190112975802	1
5	73	5.39081060946	1
5	84	7.780865215926	1
5	101	9.692984243635	1
5	106	9.921105665386	1
5	123	11.307945341596	1
5	125	11.507945341596	1
5	136	12.416437513911	1
5	147	12.973117699836	1
5	158	17.387291475029	1
5	175	18.229266270616	1
5	180	18.526283006804	1
5	197	20.420938919878	1
5	199	20.620938919878	1
5	210	24.313480791288	1
5	224	25.323310846198	1
5	232	25.71390505773	1
5	243	27.593266271011	1
5	254	28.402297163697	1
5	265	29.734765003912	1
5	285	30.636962260166	1
5	298	30.836962260166	1
5	302	31.036962260166	1
5	304	31.236962260166	1
5	318	32.126223680856	1
5	332	32.479652102603	1
5	337	32.70724555372	1
5	351	33.868702409031	1
5	359	34.204677515397	1
5	370	36.182473048443	1
5	387	37.155709127746	1
5	392	37.377147082072	1
5	403	37.875357633821	1
5	414	38.945933715142	1
5	425	39.755734662889	1
5	436	40.958560206701	1
5	447	43.320151818346	1
5	458	43.754622243728	1
5	469	44.490654208667	1
5	480	46.0511141026	1
5	491	48.843872719274	1
5	502	50.526139078819	1
5	519	51.862329301926	1
5	527	52.082254641279	1
5	535	52.389755710124	1
5	546	55.374652847391	1
5	557	55.927266809948	1
5	568	56.574676836262	1
5	579	60.111296794168	1
5	596	61.209710150004	1
5	607	61.420548364593	1
5	612	61.657932887128	1
5	623	62.432147645686	1
5	634	64.079943538941	1
5	648	64.747947924333	1
5	656	65.133148923277	1
5	670	66.621930999114	1
5	678	66.969980350906	1
5	692	68.180439262378	1
5	700	68.539858213441	1
5	711	70.411416687684	1
5	722	72.171034688527	1
5	733	72.961689408463	1
5	744	73.76584344243	1
5	761	74.214011850777	1
5	766	74.42680589396	1
5	777	76.03124391856	1
5	788	77.283905468958	1
5	799	80.184113458822	1
5	810	81.205404640749	1
5	821	82.028086013298	1
5	832	82.789948600215	1
5	843	84.420810131802	1
5	854	85.270676415719	1
5	876	86.649643825601	1
5	879	86.849643825601	1
5	881	87.049643825601	1
5	892	88.026337227803	1
5	903	90.046292670997	1
5	914	90.81127793087	1
5	931	91.446537717632	1
5	933	91.646537717632	1
5	950	94.740443115657	1
5	952	94.940443115657	1
5	966	95.446712812446	1
5	974	95.772239422417	1
5	985	97.170463553741	1
5	996	103.117062517922	1
5	1015	103.926870252603	1
5	1035	104.182537826953	1
5	1043	104.382537826953	1
5	1046	104.582537826953	1
5	1051	104.782537826953	1
5	1058	104.982537826953	1
5	1063	105.182537826953	1
5	1071	105.575661506587	1
5	1082	106.210094776097	1
5	1099	107.86138677629	1
5	1112	108.107430436757	1
5	1121	108.352461311635	1
5	1123	108.552461311635	1
5	1134	111.116040504168	1
5	1145	111.568943411128	1
5	1167	116.034167045261	1
5	1170	116.234167045261	1
5	1172	116.434167045261	1
5	1183	117.502155663197	1
5	1194	119.038820712614	1
5	1205	119.442094806744	1
5	1216	120.598432446773	1
5	1227	122.071853977334	1
5	1238	122.796789054722	1
5	1252	123.452109689827	1
5	1260	123.765606339528	1
5	1271	124.166120986073	1
5	1282	125.259093608768	1
5	1293	126.243815126018	1
5	1304	127.744956876037	1
5	1315	128.302815222211	1
5	1332	128.948441053261	1
5	1337	129.237536904341	1
5	1356	133.642729146249	1
5	1358	133.842729146249	1
5	1369	134.474114664863	1
5	1380	135.906151099574	1
5	1391	137.019436775831	1
5	1402	139.516189602433	1
5	1419	140.078763503964	1
5	1427	140.296820003306	1