version 3
run BaseVersion-7-20240511-20:45:07-11874
attr configname BaseVersion
attr datetime 20240511-20:45:07
attr datetimef 20240511-204507
attr experiment BaseVersion
attr inifile omnetpp.ini
attr iterationvars $genInterval=0.45
attr iterationvarsd genInterval=0.45
attr iterationvarsf genInterval=0.45-
attr measurement $genInterval=0.45
attr network Network
attr processid 11874
attr repetition 0
attr replication #0
attr resultdir results
attr runnumber 7
attr seedset 7
itervar genInterval 0.45
config network Network
config sim-time-limit 200s
config Network.nodeTx.gen.generationInterval exponential(0.45)
config Network.nodeTx.gen.packetByteSize 12500
config Network.nodeTx.queue.bufferSize 200
config Network.nodeRx.queue.bufferSize 200
config Network.queue.bufferSize 200

vector 0 Network.nodeTx.gen packetGen ETV
vector 1 Network.nodeTx.queue bufferSize ETV
vector 2 Network.queue bufferSize ETV
vector 3 Network.nodeRx.queue bufferSize ETV
vector 4 Network.nodeRx.sink Delay ETV
vector 5 Network.nodeRx.sink packetUsed ETV
0	1	0.035719610161	1
0	7	0.151781348769	1
0	22	0.832972759363	1
0	28	1.005841245725	1
0	41	1.265483079315	1
0	54	2.987586342986	1
0	65	3.566024683246	1
0	74	3.839644161821	1
0	87	5.556950543495	1
0	93	5.722635041323	1
0	106	6.070603967185	1
0	114	6.208461326522	1
0	127	6.521387107751	1
0	130	6.562219398936	1
0	132	6.595869790744	1
0	148	6.840510205238	1
0	158	6.981168798916	1
0	161	6.988386028337	1
0	176	7.300196520684	1
0	188	7.637821662849	1
0	202	8.14948556524	1
0	215	9.063455140093	1
0	226	9.796194676594	1
0	232	9.976973609014	1
0	243	10.192773318821	1
0	255	10.417382471425	1
0	258	10.448077281643	1
0	274	10.95291967659	1
0	282	11.105866524102	1
0	297	11.607935762553	1
0	308	12.68948349699	1
0	319	13.222406520743	1
0	325	13.330414080529	1
0	334	13.521487029098	1
0	346	13.79225482576	1
0	360	14.985898952908	1
0	371	16.190386541671	1
0	377	16.327457797499	1
0	380	16.338804302809	1
0	398	16.964011772693	1
0	411	17.376960563232	1
0	417	17.509363555764	1
0	432	18.858610037297	1
0	443	19.716214642172	1
0	449	19.834005830583	1
0	455	19.920056803444	1
0	468	20.277877711416	1
0	482	20.981808264271	1
0	493	22.061046600963	1
0	504	23.309643723647	1
0	507	23.373954015211	1
0	519	23.642020977931	1
0	531	23.975517826005	1
0	542	24.194021334956	1
0	555	24.818592147806	1
0	561	25.017649614839	1
0	576	25.515204226129	1
0	579	25.611896795848	1
0	591	25.895688101886	1
0	596	25.943337383307	1
0	601	26.046487895639	1
0	617	26.343042549291	1
0	627	26.646723892614	1
0	639	27.074741388721	1
0	650	27.284363926629	1
0	663	28.64382120353	1
0	672	28.935844713769	1
0	680	29.128836879712	1
0	691	29.333826930782	1
0	699	29.479480706004	1
0	715	30.298324487445	1
0	724	30.564501362591	1
0	737	31.223217115421	1
0	748	32.648832270042	1
0	754	32.818423724132	1
0	760	32.907494514782	1
0	775	33.290036913515	1
0	778	33.359330491514	1
0	790	33.504694730008	1
0	793	33.543935651184	1
0	808	33.815294366864	1
0	820	34.171866413508	1
0	828	34.367785408784	1
0	838	34.534900549144	1
0	852	35.016936110896	1
0	860	35.166465987172	1
0	871	35.374632785712	1
0	885	36.516834348751	1
0	894	36.793362891904	1
0	905	37.048962720849	1
0	918	37.620712347547	1
0	927	37.86487638907	1
0	938	38.104598831573	1
0	951	40.032743192377	1
0	962	41.098781257407	1
0	973	41.808788513528	1
0	976	41.898339346338	1
0	986	42.087580434693	1
0	1002	42.695704274488	1
0	1008	42.856426032175	1
0	1021	43.103398968968	1
0	1032	43.418888984384	1
0	1043	43.669051360135	1
0	1056	44.108336364322	1
0	1067	44.561108533968	1
0	1078	45.042583390674	1
0	1087	45.375602363257	1
0	1095	45.510574416617	1
0	1106	45.751751262892	1
0	1118	45.985539082104	1
0	1121	45.986181636329	1
0	1137	46.48135991973	1
0	1140	46.524919862627	1
0	1154	46.785437631153	1
0	1168	47.341542331563	1
0	1179	48.02646379775	1
0	1188	48.360842475	1
0	1201	48.880144860023	1
0	1212	49.416209857574	1
0	1223	50.016673757269	1
0	1234	51.416873311487	1
0	1243	51.719369409334	1
0	1256	52.236231211355	1
0	1267	53.621748455086	1
0	1270	53.646314895816	1
0	1272	53.721432340533	1
0	1282	53.887663366859	1
0	1298	54.358951841837	1
0	1310	54.763027868952	1
0	1321	55.129831606904	1
0	1329	55.250448187886	1
0	1344	56.163493047559	1
0	1355	57.671703650733	1
0	1358	57.741476345989	1
0	1374	59.047061013201	1
0	1383	59.314376294578	1
0	1396	60.163308323124	1
0	1407	60.64775908931	1
0	1416	60.935431854511	1
0	1429	61.423164874644	1
0	1440	62.251999063175	1
0	1451	63.072647341003	1
0	1454	63.135890107872	1
0	1468	63.478105718544	1
0	1474	63.644259258506	1
0	1477	63.662463294031	1
0	1493	63.94225100636	1
0	1498	63.987467779032	1
0	1515	64.596859401872	1
0	1528	65.31862698628	1
0	1537	65.617963407088	1
0	1548	65.849629878952	1
0	1551	65.915868550724	1
0	1567	66.432075317623	1
0	1575	66.621475019632	1
0	1588	66.935125730777	1
0	1596	67.11161250397	1
0	1609	67.339372355687	1
0	1615	67.500145453685	1
0	1632	68.193560828284	1
0	1635	68.274976723314	1
0	1651	69.635245102215	1
0	1660	69.87643409342	1
0	1666	70.010689279249	1
0	1681	70.27818090859	1
0	1692	70.608356126615	1
0	1705	71.279401616994	1
0	1716	72.190983771877	1
0	1727	72.90718232026	1
0	1736	73.183934302838	1
0	1747	73.516466775895	1
0	1750	73.568909788847	1
0	1764	73.846719101755	1
0	1778	74.568726579166	1
0	1789	75.246444822628	1
0	1798	75.556492136793	1
0	1811	76.538809668011	1
0	1814	76.637638266249	1
0	1830	77.143294347747	1
0	1841	78.082930180258	1
0	1852	78.808256392679	1
0	1858	78.948752302395	1
0	1873	80.208171167915	1
0	1879	80.329858505805	1
0	1882	80.348535919398	1
0	1894	80.558307796282	1
0	1912	81.496481228561	1
0	1921	81.715902794873	1
0	1927	81.861586656199	1
0	1938	81.981010649088	1
0	1950	82.27162707373	1
0	1955	82.35861974546	1
0	1972	83.075637344912	1
0	1981	83.304389608018	1
0	1994	83.87281371291	1
0	2005	84.702082248292	1
0	2008	84.773708185237	1
0	2024	85.46904776646	1
0	2035	85.952858442193	1
0	2046	86.413578892566	1
0	2049	86.445873947407	1
0	2061	86.7542197314	1
0	2069	86.952993911124	1
0	2083	87.241291196128	1
0	2096	87.99537219957	1
0	2105	88.284677354767	1
0	2116	88.535822530619	1
0	2129	89.829519463799	1
0	2140	90.241686561866	1
0	2151	90.844076791971	1
0	2162	91.430222654293	1
0	2165	91.449330500279	1
0	2181	92.224069326214	1
0	2192	92.862128981482	1
0	2203	93.505298233236	1
0	2212	93.829439944054	1
0	2215	93.832665954498	1
0	2219	93.921105790012	1
0	2233	94.166432329054	1
0	2245	94.390344659357	1
0	2257	94.670249554275	1
0	2271	95.933240413193	1
0	2274	95.958934993116	1
0	2279	96.066675600303	1
0	2294	96.417526550538	1
0	2308	97.172731059356	1
0	2319	97.593890019692	1
0	2328	97.826506335108	1
0	2341	98.619810952936	1
0	2350	99.017445432198	1
0	2363	100.29725858318	1
0	2366	100.389865679272	1
0	2371	100.451576618565	1
0	2390	101.20444025186	1
0	2396	101.322306156441	1
0	2409	101.713590268147	1
0	2422	102.19794210854	1
0	2431	102.464465996966	1
0	2434	102.528415396594	1
0	2452	103.248366200401	1
0	2458	103.362533044222	1
0	2471	103.716169512213	1
0	2482	104.101073793115	1
0	2493	104.344974190317	1
0	2496	104.428564353962	1
0	2498	104.437268490482	1
0	2520	105.123210916019	1
0	2533	105.641294674842	1
0	2544	106.516427762279	1
0	2553	106.81775763452	1
0	2556	106.833172043134	1
0	2563	106.94531420229	1
0	2578	107.287613774329	1
0	2590	107.647485609782	1
0	2603	108.36492497536	1
0	2612	108.697646841699	1
0	2625	110.360163896084	1
0	2634	110.661014537366	1
0	2642	110.8052672202	1
0	2651	110.942611767623	1
0	2656	111.025972968044	1
0	2671	111.363141892023	1
0	2685	112.305055964651	1
0	2696	114.179173976138	1
0	2707	115.2586802787	1
0	2718	115.698165552626	1
0	2721	115.797194535683	1
0	2735	116.244069514328	1
0	2746	116.506218775233	1
0	2759	117.589658797706	1
0	2770	118.161260982925	1
0	2781	119.63903133103	1
0	2792	120.478983082488	1
0	2801	120.874855858632	1
0	2806	120.957770066199	1
0	2811	121.038860559947	1
0	2828	121.530950011941	1
0	2839	121.754560294038	1
0	2852	122.496791772739	1
0	2863	123.798354898024	1
0	2872	124.15739757685	1
0	2880	124.346697656679	1
0	2886	124.427690583133	1
0	2903	124.977148903941	1
0	2906	124.993427793221	1
0	2916	125.27312367692	1
0	2926	125.421910165703	1
0	2938	125.641982194674	1
0	2952	126.384296552084	1
0	2961	126.722558472093	1
0	2964	126.743168117239	1
0	2982	127.519072180053	1
0	2985	127.522784879588	1
0	2999	127.980628236395	1
0	3010	128.182595574018	1
0	3023	129.076728674911	1
0	3026	129.106310028989	1
0	3040	129.561855894951	1
0	3043	129.634717535846	1
0	3061	132.901827525264	1
0	3064	132.912386096492	1
0	3076	133.240595844098	1
0	3088	133.575328717942	1
0	3096	133.753945700963	1
0	3111	134.290804417295	1
0	3114	134.337603684034	1
0	3124	134.588236998845	1
0	3138	134.964652202139	1
0	3141	135.029690394704	1
0	3148	135.138741811753	1
0	3159	135.319869204071	1
0	3162	135.325206585909	1
0	3179	135.726805495823	1
0	3187	135.886805065543	1
0	3205	137.157827896682	1
0	3208	137.175718715803	1
0	3224	139.380978450078	1
0	3235	141.063371215622	1
0	3241	141.187817892106	1
0	3254	141.548601796819	1
0	3257	141.55338812017	1
0	3259	141.586876123813	1
0	3283	142.385954887254	1
0	3289	142.572983079001	1
0	3304	143.748386518149	1
0	3310	143.873604910722	1
0	3323	144.149726412056	1
0	3326	144.200829147212	1
0	3344	144.865014200714	1
0	3355	145.527015638906	1
0	3366	146.432146512543	1
0	3372	146.626415475275	1
0	3387	147.049695079471	1
0	3390	147.143211853776	1
0	3406	148.070498460104	1
0	3417	149.167536824854	1
0	3420	149.178423826076	1
0	3436	150.066880690653	1
0	3442	150.209484959262	1
0	3453	150.438530921734	1
0	3461	150.584623338009	1
0	3475	150.940303070729	1
0	3478	150.998151604843	1
0	3492	151.267485540977	1
0	3506	152.35464252832	1
0	3517	152.886930075894	1
0	3520	152.90084055002	1
0	3525	153.009111756794	1
0	3542	153.51151586941	1
0	3550	153.687585014005	1
0	3556	153.720890527469	1
0	3573	154.326888378476	1
0	3582	154.528266693949	1
0	3585	154.618982478318	1
0	3599	154.862637626523	1
0	3613	155.398497519886	1
0	3616	155.488571750683	1
0	3630	155.825216718571	1
0	3641	156.156454579857	1
0	3646	156.25602119798	1
0	3660	156.600586266247	1
0	3673	157.073603219699	1
0	3679	157.245199320512	1
0	3692	157.566001553252	1
0	3705	158.167172809371	1
0	3716	158.69280966132	1
0	3719	158.771377133816	1
0	3733	159.154765495115	1
0	3736	159.250985572914	1
0	3754	159.91257132448	1
0	3760	160.109557536257	1
0	3773	160.334245226994	1
0	3784	160.548184261551	1
0	3797	161.981088551471	1
0	3803	162.085052907803	1
0	3818	163.803635783099	1
0	3829	164.933010915849	1
0	3835	165.037312898249	1
0	3850	165.829675135228	1
0	3859	166.120494873367	1
0	3862	166.171358678112	1
0	3880	166.874000573055	1
0	3889	167.081549476497	1
0	3892	167.143151277683	1
0	3897	167.262329164835	1
0	3918	168.051822853294	1
0	3927	168.321732864067	1
0	3933	168.443713793811	1
0	3944	168.589244730351	1
0	3960	169.859541892446	1
0	3969	170.173087270066	1
0	3982	170.946395050428	1
0	3993	172.097859238525	1
0	3996	172.121775477186	1
0	4006	172.338717892458	1
0	4009	172.339553257325	1
0	4026	172.812138237956	1
0	4031	172.899782757867	1
0	4046	173.307214105355	1
0	4057	173.655114744704	1
0	4070	174.282477423566	1
0	4079	174.629978870198	1
0	4082	174.658620742844	1
0	4096	174.981256301105	1
0	4110	175.59586652569	1
0	4116	175.720659247105	1
0	4131	177.03641161648	1
0	4134	177.039199762863	1
0	4148	177.455553009472	1
0	4161	178.063933963411	1
0	4167	178.216523370877	1
0	4180	178.485308324389	1
0	4193	178.987448906036	1
0	4204	179.922171208559	1
0	4215	180.48240510807	1
0	4224	180.702597920636	1
0	4237	181.183388482031	1
0	4240	181.185264461013	1
0	4242	181.25677578199	1
0	4247	181.328170982682	1
0	4272	182.961531091736	1
0	4275	182.978341888908	1
0	4291	184.37768458421	1
0	4297	184.520660059451	1
0	4308	184.769390454481	1
0	4316	184.906484101047	1
0	4330	185.311713257473	1
0	4343	185.734568419153	1
0	4346	185.752764244606	1
0	4348	185.824995880025	1
0	4370	187.839717096408	1
0	4376	187.944481248237	1
0	4391	188.713013897477	1
0	4402	189.287903746671	1
0	4413	189.743295842301	1
0	4419	189.883431252257	1
0	4434	190.52767212152	1
0	4437	190.619669824629	1
0	4442	190.713401130482	1
0	4461	191.461576443234	1
0	4467	191.627028081104	1
0	4473	191.669979423781	1
0	4478	191.7972777285	1
0	4484	191.859774816085	1
0	4502	192.267682708797	1
0	4514	192.779861453095	1
0	4517	192.823244204312	1
0	4531	193.091941581746	1
0	4545	194.108771133603	1
0	4554	194.330956018023	1
0	4565	194.610140403581	1
0	4578	195.098054305541	1
0	4587	195.362856421852	1
0	4590	195.367598915635	1
0	4592	195.41737298622	1
0	4599	195.553794980961	1
0	4620	196.073490096313	1
0	4634	196.701365986808	1
0	4645	197.465326498819	1
0	4656	198.712906793004	1
0	4667	199.159773559364	1
0	4678	199.666491055416	1
0	4684	199.791186829635	1
1	2	0.035719610161	1
1	8	0.151781348769	1
1	23	0.832972759363	1
1	29	1.005841245725	1
1	42	1.265483079315	1
1	55	2.987586342986	1
1	66	3.566024683246	1
1	75	3.839644161821	1
1	88	5.556950543495	1
1	94	5.722635041323	1
1	107	6.070603967185	1
1	115	6.208461326522	1
1	128	6.521387107751	1
1	131	6.562219398936	1
1	133	6.595869790744	2
1	149	6.840510205238	1
1	159	6.981168798916	1
1	162	6.988386028337	1
1	177	7.300196520684	1
1	189	7.637821662849	1
1	203	8.14948556524	1
1	216	9.063455140093	1
1	227	9.796194676594	1
1	233	9.976973609014	1
1	244	10.192773318821	1
1	256	10.417382471425	1
1	259	10.448077281643	1
1	275	10.95291967659	1
1	283	11.105866524102	1
1	298	11.607935762553	1
1	309	12.68948349699	1
1	320	13.222406520743	1
1	326	13.330414080529	1
1	335	13.521487029098	1
1	347	13.79225482576	1
1	361	14.985898952908	1
1	372	16.190386541671	1
1	378	16.327457797499	1
1	381	16.338804302809	1
1	399	16.964011772693	1
1	412	17.376960563232	1
1	418	17.509363555764	1
1	433	18.858610037297	1
1	444	19.716214642172	1
1	450	19.834005830583	1
1	456	19.920056803444	1
1	469	20.277877711416	1
1	483	20.981808264271	1
1	494	22.061046600963	1
1	505	23.309643723647	1
1	508	23.373954015211	1
1	520	23.642020977931	1
1	532	23.975517826005	1
1	543	24.194021334956	1
1	556	24.818592147806	1
1	562	25.017649614839	1
1	577	25.515204226129	1
1	580	25.611896795848	1
1	592	25.895688101886	1
1	597	25.943337383307	1
1	602	26.046487895639	1
1	618	26.343042549291	1
1	628	26.646723892614	1
1	640	27.074741388721	1
1	651	27.284363926629	1
1	664	28.64382120353	1
1	673	28.935844713769	1
1	681	29.128836879712	1
1	692	29.333826930782	1
1	700	29.479480706004	1
1	716	30.298324487445	1
1	725	30.564501362591	1
1	738	31.223217115421	1
1	749	32.648832270042	1
1	755	32.818423724132	1
1	761	32.907494514782	1
1	776	33.290036913515	1
1	779	33.359330491514	1
1	791	33.504694730008	1
1	794	33.543935651184	1
1	809	33.815294366864	1
1	821	34.171866413508	1
1	829	34.367785408784	1
1	839	34.534900549144	1
1	853	35.016936110896	1
1	861	35.166465987172	1
1	872	35.374632785712	1
1	886	36.516834348751	1
1	895	36.793362891904	1
1	906	37.048962720849	1
1	919	37.620712347547	1
1	928	37.86487638907	1
1	939	38.104598831573	1
1	952	40.032743192377	1
1	963	41.098781257407	1
1	974	41.808788513528	1
1	977	41.898339346338	1
1	987	42.087580434693	1
1	1003	42.695704274488	1
1	1009	42.856426032175	1
1	1022	43.103398968968	1
1	1033	43.418888984384	1
1	1044	43.669051360135	1
1	1057	44.108336364322	1
1	1068	44.561108533968	1
1	1079	45.042583390674	1
1	1088	45.375602363257	1
1	1096	45.510574416617	1
1	1107	45.751751262892	1
1	1119	45.985539082104	1
1	1122	45.986181636329	1
1	1138	46.48135991973	1
1	1141	46.524919862627	1
1	1155	46.785437631153	1
1	1169	47.341542331563	1
1	1180	48.02646379775	1
1	1189	48.360842475	1
1	1202	48.880144860023	1
1	1213	49.416209857574	1
1	1224	50.016673757269	1
1	1235	51.416873311487	1
1	1244	51.719369409334	1
1	1257	52.236231211355	1
1	1268	53.621748455086	1
1	1271	53.646314895816	1
1	1273	53.721432340533	2
1	1283	53.887663366859	1
1	1299	54.358951841837	1
1	1311	54.763027868952	1
1	1322	55.129831606904	1
1	1330	55.250448187886	1
1	1345	56.163493047559	1
1	1356	57.671703650733	1
1	1359	57.741476345989	1
1	1375	59.047061013201	1
1	1384	59.314376294578	1
1	1397	60.163308323124	1
1	1408	60.64775908931	1
1	1417	60.935431854511	1
1	1430	61.423164874644	1
1	1441	62.251999063175	1
1	1452	63.072647341003	1
1	1455	63.135890107872	1
1	1469	63.478105718544	1
1	1475	63.644259258506	1
1	1478	63.662463294031	1
1	1494	63.94225100636	1
1	1499	63.987467779032	1
1	1516	64.596859401872	1
1	1529	65.31862698628	1
1	1538	65.617963407088	1
1	1549	65.849629878952	1
1	1552	65.915868550724	1
1	1568	66.432075317623	1
1	1576	66.621475019632	1
1	1589	66.935125730777	1
1	1597	67.11161250397	1
1	1610	67.339372355687	1
1	1616	67.500145453685	1
1	1633	68.193560828284	1
1	1636	68.274976723314	1
1	1652	69.635245102215	1
1	1661	69.87643409342	1
1	1667	70.010689279249	1
1	1682	70.27818090859	1
1	1693	70.608356126615	1
1	1706	71.279401616994	1
1	1717	72.190983771877	1
1	1728	72.90718232026	1
1	1737	73.183934302838	1
1	1748	73.516466775895	1
1	1751	73.568909788847	1
1	1765	73.846719101755	1
1	1779	74.568726579166	1
1	1790	75.246444822628	1
1	1799	75.556492136793	1
1	1812	76.538809668011	1
1	1815	76.637638266249	1
1	1831	77.143294347747	1
1	1842	78.082930180258	1
1	1853	78.808256392679	1
1	1859	78.948752302395	1
1	1874	80.208171167915	1
1	1880	80.329858505805	1
1	1883	80.348535919398	1
1	1895	80.558307796282	1
1	1913	81.496481228561	1
1	1922	81.715902794873	1
1	1928	81.861586656199	1
1	1939	81.981010649088	1
1	1951	82.27162707373	1
1	1956	82.35861974546	1
1	1973	83.075637344912	1
1	1982	83.304389608018	1
1	1995	83.87281371291	1
1	2006	84.702082248292	1
1	2009	84.773708185237	1
1	2025	85.46904776646	1
1	2036	85.952858442193	1
1	2047	86.413578892566	1
1	2050	86.445873947407	1
1	2062	86.7542197314	1
1	2070	86.952993911124	1
1	2084	87.241291196128	1
1	2097	87.99537219957	1
1	2106	88.284677354767	1
1	2117	88.535822530619	1
1	2130	89.829519463799	1
1	2141	90.241686561866	1
1	2152	90.844076791971	1
1	2163	91.430222654293	1
1	2166	91.449330500279	1
1	2182	92.224069326214	1
1	2193	92.862128981482	1
1	2204	93.505298233236	1
1	2213	93.829439944054	1
1	2216	93.832665954498	1
1	2220	93.921105790012	2
1	2234	94.166432329054	1
1	2246	94.390344659357	1
1	2258	94.670249554275	1
1	2272	95.933240413193	1
1	2275	95.958934993116	1
1	2280	96.066675600303	1
1	2295	96.417526550538	1
1	2309	97.172731059356	1
1	2320	97.593890019692	1
1	2329	97.826506335108	1
1	2342	98.619810952936	1
1	2351	99.017445432198	1
1	2364	100.29725858318	1
1	2367	100.389865679272	1
1	2372	100.451576618565	1
1	2391	101.20444025186	1
1	2397	101.322306156441	1
1	2410	101.713590268147	1
1	2423	102.19794210854	1
1	2432	102.464465996966	1
1	2435	102.528415396594	1
1	2453	103.248366200401	1
1	2459	103.362533044222	1
1	2472	103.716169512213	1
1	2483	104.101073793115	1
1	2494	104.344974190317	1
1	2497	104.428564353962	1
1	2499	104.437268490482	2
1	2521	105.123210916019	1
1	2534	105.641294674842	1
1	2545	106.516427762279	1
1	2554	106.81775763452	1
1	2557	106.833172043134	1
1	2564	106.94531420229	1
1	2579	107.287613774329	1
1	2591	107.647485609782	1
1	2604	108.36492497536	1
1	2613	108.697646841699	1
1	2626	110.360163896084	1
1	2635	110.661014537366	1
1	2643	110.8052672202	1
1	2652	110.942611767623	1
1	2657	111.025972968044	1
1	2672	111.363141892023	1
1	2686	112.305055964651	1
1	2697	114.179173976138	1
1	2708	115.2586802787	1
1	2719	115.698165552626	1
1	2722	115.797194535683	1
1	2736	116.244069514328	1
1	2747	116.506218775233	1
1	2760	117.589658797706	1
1	2771	118.161260982925	1
1	2782	119.63903133103	1
1	2793	120.478983082488	1
1	2802	120.874855858632	1
1	2807	120.957770066199	1
1	2812	121.038860559947	1
1	2829	121.530950011941	1
1	2840	121.754560294038	1
1	2853	122.496791772739	1
1	2864	123.798354898024	1
1	2873	124.15739757685	1
1	2881	124.346697656679	1
1	2887	124.427690583133	1
1	2904	124.977148903941	1
1	2907	124.993427793221	1
1	2917	125.27312367692	1
1	2927	125.421910165703	1
1	2939	125.641982194674	1
1	2953	126.384296552084	1
1	2962	126.722558472093	1
1	2965	126.743168117239	1
1	2983	127.519072180053	1
1	2986	127.522784879588	1
1	3000	127.980628236395	1
1	3011	128.182595574018	1
1	3024	129.076728674911	1
1	3027	129.106310028989	1
1	3041	129.561855894951	1
1	3044	129.634717535846	1
1	3062	132.901827525264	1
1	3065	132.912386096492	1
1	3077	133.240595844098	1
1	3089	133.575328717942	1
1	3097	133.753945700963	1
1	3112	134.290804417295	1
1	3115	134.337603684034	1
1	3125	134.588236998845	1
1	3139	134.964652202139	1
1	3142	135.029690394704	1
1	3149	135.138741811753	1
1	3160	135.319869204071	1
1	3163	135.325206585909	1
1	3180	135.726805495823	1
1	3188	135.886805065543	1
1	3206	137.157827896682	1
1	3209	137.175718715803	1
1	3225	139.380978450078	1
1	3236	141.063371215622	1
1	3242	141.187817892106	1
1	3255	141.548601796819	1
1	3258	141.55338812017	1
1	3260	141.586876123813	2
1	3284	142.385954887254	1
1	3290	142.572983079001	1
1	3305	143.748386518149	1
1	3311	143.873604910722	1
1	3324	144.149726412056	1
1	3327	144.200829147212	1
1	3345	144.865014200714	1
1	3356	145.527015638906	1
1	3367	146.432146512543	1
1	3373	146.626415475275	1
1	3388	147.049695079471	1
1	3391	147.143211853776	1
1	3407	148.070498460104	1
1	3418	149.167536824854	1
1	3421	149.178423826076	1
1	3437	150.066880690653	1
1	3443	150.209484959262	1
1	3454	150.438530921734	1
1	3462	150.584623338009	1
1	3476	150.940303070729	1
1	3479	150.998151604843	1
1	3493	151.267485540977	1
1	3507	152.35464252832	1
1	3518	152.886930075894	1
1	3521	152.90084055002	1
1	3526	153.009111756794	1
1	3543	153.51151586941	1
1	3551	153.687585014005	1
1	3557	153.720890527469	1
1	3574	154.326888378476	1
1	3583	154.528266693949	1
1	3586	154.618982478318	1
1	3600	154.862637626523	1
1	3614	155.398497519886	1
1	3617	155.488571750683	1
1	3631	155.825216718571	1
1	3642	156.156454579857	1
1	3647	156.25602119798	1
1	3661	156.600586266247	1
1	3674	157.073603219699	1
1	3680	157.245199320512	1
1	3693	157.566001553252	1
1	3706	158.167172809371	1
1	3717	158.69280966132	1
1	3720	158.771377133816	1
1	3734	159.154765495115	1
1	3737	159.250985572914	1
1	3755	159.91257132448	1
1	3761	160.109557536257	1
1	3774	160.334245226994	1
1	3785	160.548184261551	1
1	3798	161.981088551471	1
1	3804	162.085052907803	1
1	3819	163.803635783099	1
1	3830	164.933010915849	1
1	3836	165.037312898249	1
1	3851	165.829675135228	1
1	3860	166.120494873367	1
1	3863	166.171358678112	1
1	3881	166.874000573055	1
1	3890	167.081549476497	1
1	3893	167.143151277683	1
1	3898	167.262329164835	1
1	3919	168.051822853294	1
1	3928	168.321732864067	1
1	3934	168.443713793811	1
1	3945	168.589244730351	1
1	3961	169.859541892446	1
1	3970	170.173087270066	1
1	3983	170.946395050428	1
1	3994	172.097859238525	1
1	3997	172.121775477186	1
1	4007	172.338717892458	1
1	4010	172.339553257325	1
1	4027	172.812138237956	1
1	4032	172.899782757867	1
1	4047	173.307214105355	1
1	4058	173.655114744704	1
1	4071	174.282477423566	1
1	4080	174.629978870198	1
1	4083	174.658620742844	1
1	4097	174.981256301105	1
1	4111	175.59586652569	1
1	4117	175.720659247105	1
1	4132	177.03641161648	1
1	4135	177.039199762863	1
1	4149	177.455553009472	1
1	4162	178.063933963411	1
1	4168	178.216523370877	1
1	4181	178.485308324389	1
1	4194	178.987448906036	1
1	4205	179.922171208559	1
1	4216	180.48240510807	1
1	4225	180.702597920636	1
1	4238	181.183388482031	1
1	4241	181.185264461013	1
1	4243	181.25677578199	2
1	4248	181.328170982682	2
1	4273	182.961531091736	1
1	4276	182.978341888908	1
1	4292	184.37768458421	1
1	4298	184.520660059451	1
1	4309	184.769390454481	1
1	4317	184.906484101047	1
1	4331	185.311713257473	1
1	4344	185.734568419153	1
1	4347	185.752764244606	1
1	4349	185.824995880025	2
1	4371	187.839717096408	1
1	4377	187.944481248237	1
1	4392	188.713013897477	1
1	4403	189.287903746671	1
1	4414	189.743295842301	1
1	4420	189.883431252257	1
1	4435	190.52767212152	1
1	4438	190.619669824629	1
1	4443	190.713401130482	1
1	4462	191.461576443234	1
1	4468	191.627028081104	1
1	4474	191.669979423781	1
1	4479	191.7972777285	1
1	4485	191.859774816085	1
1	4503	192.267682708797	1
1	4515	192.779861453095	1
1	4518	192.823244204312	1
1	4532	193.091941581746	1
1	4546	194.108771133603	1
1	4555	194.330956018023	1
1	4566	194.610140403581	1
1	4579	195.098054305541	1
1	4588	195.362856421852	1
1	4591	195.367598915635	1
1	4593	195.41737298622	2
1	4600	195.553794980961	2
1	4621	196.073490096313	1
1	4635	196.701365986808	1
1	4646	197.465326498819	1
1	4657	198.712906793004	1
1	4668	199.159773559364	1
1	4679	199.666491055416	1
1	4685	199.791186829635	1
2	5	0.135819610161	1
2	14	0.251881348769	1
2	26	0.933072759363	1
2	35	1.105941245725	1
2	45	1.365583079315	1
2	58	3.087686342986	1
2	69	3.666124683246	1
2	78	3.939744161821	1
2	91	5.657050543495	1
2	100	5.822735041323	1
2	112	6.170703967185	1
2	121	6.308561326522	1
2	135	6.621487107751	1
2	140	6.721487107751	1
2	145	6.821487107751	1
2	156	6.940610205238	1
2	166	7.081268798916	1
2	171	7.181268798916	1
2	182	7.400296520684	1
2	194	7.737921662849	1
2	206	8.24958556524	1
2	219	9.163555140093	1
2	230	9.896294676594	1
2	239	10.077073609014	1
2	249	10.292873318821	1
2	261	10.517482471425	1
2	266	10.617482471425	1
2	280	11.05301967659	1
2	289	11.205966524102	1
2	301	11.708035762553	1
2	312	12.78958349699	1
2	323	13.322506520743	1
2	332	13.430514080529	1
2	340	13.621587029098	1
2	352	13.89235482576	1
2	364	15.085998952908	1
2	375	16.290486541671	1
2	386	16.427557797499	1
2	389	16.527557797499	1
2	404	17.064111772693	1
2	415	17.477060563232	1
2	424	17.609463555764	1
2	436	18.958710037297	1
2	447	19.816314642172	1
2	458	19.934105830583	1
2	461	20.034105830583	1
2	474	20.377977711416	1
2	486	21.081908264271	1
2	497	22.161146600963	1
2	510	23.409743723647	1
2	513	23.509743723647	1
2	525	23.742120977931	1
2	535	24.075617826005	1
2	546	24.294121334956	1
2	559	24.918692147806	1
2	568	25.117749614839	1
2	582	25.615304226129	1
2	585	25.715304226129	1
2	599	25.995788101886	1
2	604	26.095788101886	1
2	610	26.195788101886	1
2	621	26.443142549291	1
2	633	26.746823892614	1
2	645	27.174841388721	1
2	654	27.384463926629	1
2	667	28.74392120353	1
2	676	29.035944713769	1
2	687	29.228936879712	1
2	697	29.433926930782	1
2	707	29.579580706004	1
2	719	30.398424487445	1
2	728	30.664601362591	1
2	741	31.323317115421	1
2	752	32.748932270042	1
2	763	32.918523724132	1
2	766	33.018523724132	1
2	781	33.390136913515	1
2	786	33.490136913515	1
2	798	33.604794730008	1
2	803	33.704794730008	1
2	814	33.915394366864	1
2	824	34.271966413508	1
2	834	34.467885408784	1
2	844	34.635000549144	1
2	858	35.117036110896	1
2	867	35.266565987172	1
2	877	35.474732785712	1
2	889	36.616934348751	1
2	898	36.893462891904	1
2	909	37.149062720849	1
2	922	37.720812347547	1
2	931	37.96497638907	1
2	942	38.204698831573	1
2	955	40.132843192377	1
2	966	41.198881257407	1
2	979	41.908888513528	1
2	982	42.008888513528	1
2	992	42.187680434693	1
2	1006	42.795804274488	1
2	1015	42.956526032175	1
2	1025	43.203498968968	1
2	1038	43.518988984384	1
2	1047	43.769151360135	1
2	1060	44.208436364322	1
2	1071	44.661208533968	1
2	1082	45.142683390674	1
2	1093	45.475702363257	1
2	1102	45.610674416617	1
2	1112	45.851851262892	1
2	1124	46.085639082104	1
2	1129	46.185639082104	1
2	1143	46.58145991973	1
2	1148	46.68145991973	1
2	1160	46.885537631153	1
2	1172	47.441642331563	1
2	1183	48.12656379775	1
2	1194	48.460942475	1
2	1205	48.980244860023	1
2	1216	49.516309857574	1
2	1227	50.116773757269	1
2	1238	51.516973311487	1
2	1249	51.819469409334	1
2	1260	52.336331211355	1
2	1275	53.721848455086	1
2	1278	53.821848455086	1
2	1285	53.921848455086	1
2	1289	54.021848455086	1
2	1304	54.459051841837	1
2	1316	54.863127868952	1
2	1327	55.229931606904	1
2	1336	55.350548187886	1
2	1348	56.263593047559	1
2	1361	57.771803650733	1
2	1364	57.871803650733	1
2	1378	59.147161013201	1
2	1387	59.414476294578	1
2	1400	60.263408323124	1
2	1411	60.74785908931	1
2	1420	61.035531854511	1
2	1433	61.523264874644	1
2	1444	62.352099063175	1
2	1457	63.172747341003	1
2	1460	63.272747341003	1
2	1472	63.578205718544	1
2	1485	63.744359258506	1
2	1488	63.844359258506	1
2	1501	64.04235100636	1
2	1506	64.14235100636	1
2	1521	64.696959401872	1
2	1532	65.41872698628	1
2	1541	65.718063407088	1
2	1554	65.949729878952	1
2	1559	66.049729878952	1
2	1573	66.532175317623	1
2	1582	66.721575019632	1
2	1594	67.035225730777	1
2	1603	67.21171250397	1
2	1613	67.439472355687	1
2	1624	67.600245453685	1
2	1638	68.293660828284	1
2	1641	68.393660828284	1
2	1655	69.735345102215	1
2	1664	69.97653409342	1
2	1675	70.110789279249	1
2	1685	70.37828090859	1
2	1698	70.708456126615	1
2	1709	71.379501616994	1
2	1720	72.291083771877	1
2	1731	73.00728232026	1
2	1740	73.284034302838	1
2	1755	73.616566775895	1
2	1758	73.716566775895	1
2	1770	73.946819101755	1
2	1782	74.668826579166	1
2	1793	75.346544822628	1
2	1804	75.656592136793	1
2	1817	76.638909668011	1
2	1820	76.738909668011	1
2	1834	77.243394347747	1
2	1845	78.183030180258	1
2	1856	78.908356392679	1
2	1865	79.048852302395	1
2	1877	80.308271167915	1
2	1888	80.429958505805	1
2	1891	80.529958505805	1
2	1902	80.658407796282	1
2	1916	81.596581228561	1
2	1925	81.816002794873	1
2	1936	81.961686656199	1
2	1944	82.081110649088	1
2	1958	82.37172707373	1
2	1961	82.47172707373	1
2	1976	83.175737344912	1
2	1985	83.404489608018	1
2	1998	83.97291371291	1
2	2011	84.802182248292	1
2	2014	84.902182248292	1
2	2028	85.56914776646	1
2	2039	86.052958442193	1
2	2052	86.513678892566	1
2	2055	86.613678892566	1
2	2067	86.8543197314	1
2	2077	87.053093911124	1
2	2087	87.341391196128	1
2	2100	88.09547219957	1
2	2109	88.384777354767	1
2	2120	88.635922530619	1
2	2133	89.929619463799	1
2	2144	90.341786561866	1
2	2155	90.944176791971	1
2	2168	91.530322654293	1
2	2171	91.630322654293	1
2	2185	92.324169326214	1
2	2196	92.962228981482	1
2	2207	93.605398233236	1
2	2222	93.929539944054	1
2	2225	94.029539944054	1
2	2230	94.129539944054	1
2	2241	94.266532329054	1
2	2251	94.490444659357	1
2	2261	94.770349554275	1
2	2277	96.033340413193	1
2	2282	96.133340413193	1
2	2287	96.233340413193	1
2	2298	96.517626550538	1
2	2312	97.272831059356	1
2	2323	97.693990019692	1
2	2332	97.926606335108	1
2	2345	98.719910952936	1
2	2356	99.117545432198	1
2	2369	100.39735858318	1
2	2374	100.49735858318	1
2	2379	100.59735858318	1
2	2394	101.30454025186	1
2	2403	101.422406156441	1