version 3
run BaseVersion-17-20240511-20:45:07-11874
attr configname BaseVersion
attr datetime 20240511-20:45:07
attr datetimef 20240511-204507
attr experiment BaseVersion
attr inifile omnetpp.ini
attr iterationvars $genInterval=0.95
attr iterationvarsd genInterval=0.95
attr iterationvarsf genInterval=0.95-
attr measurement $genInterval=0.95
attr network Network
attr processid 11874
attr repetition 0
attr replication #0
attr resultdir results
attr runnumber 17
attr seedset 17
itervar genInterval 0.95
config network Network
config sim-time-limit 200s
config Network.nodeTx.gen.generationInterval exponential(0.95)
config Network.nodeTx.gen.packetByteSize 12500
config Network.nodeTx.queue.bufferSize 200
config Network.nodeRx.queue.bufferSize 200
config Network.queue.bufferSize 200

vector 0 Network.nodeTx.gen packetGen ETV
vector 1 Network.nodeTx.queue bufferSize ETV
vector 2 Network.queue bufferSize ETV
vector 3 Network.nodeRx.queue bufferSize ETV
vector 4 Network.nodeRx.sink Delay ETV
vector 5 Network.nodeRx.sink packetUsed ETV
0	1	0.331628297639	1
0	7	0.52221853896	1
0	22	1.240676724659	1
0	33	3.007106139616	1
0	42	3.209076433119	1
0	55	5.296234087589	1
0	58	5.363033865548	1
0	74	6.924966629262	1
0	85	8.394041748532	1
0	96	8.895652396449	1
0	107	9.910331847267	1
0	113	10.013589785305	1
0	128	10.9776388213	1
0	137	11.213069549287	1
0	150	12.027300948618	1
0	161	12.971218467508	1
0	164	13.009072488968	1
0	180	14.876364683925	1
0	191	15.297097534219	1
0	194	15.337138572399	1
0	210	18.104413908059	1
0	221	19.393557030633	1
0	224	19.452383817287	1
0	240	20.255077904576	1
0	251	22.150717437323	1
0	254	22.183887365618	1
0	270	24.176926296804	1
0	279	24.407515578245	1
0	282	24.457438622538	1
0	300	25.092598405729	1
0	311	26.096517038501	1
0	320	26.399020109108	1
0	333	27.161306972933	1
0	339	27.281738146394	1
0	354	28.146326598342	1
0	363	28.484671319954	1
0	376	29.112369955915	1
0	387	29.563221515482	1
0	396	29.879251297155	1
0	399	29.880319601773	1
0	413	30.216079273615	1
0	427	30.832992734766	1
0	438	31.616187719539	1
0	449	32.322748995931	1
0	460	32.801795644144	1
0	463	32.846988067704	1
0	479	34.323743809285	1
0	488	34.697260268218	1
0	501	35.212271849359	1
0	512	35.704867752827	1
0	518	35.852471788726	1
0	531	36.186921282931	1
0	539	36.342328172918	1
0	554	37.381650521923	1
0	557	37.435635012021	1
0	573	38.128207321281	1
0	584	39.330888427267	1
0	595	40.68033368026	1
0	604	41.008805237207	1
0	612	41.193305891746	1
0	623	41.403837357421	1
0	637	42.086364312509	1
0	648	43.777375972062	1
0	659	45.276817161837	1
0	670	46.07416084209	1
0	681	46.977538182184	1
0	684	47.059169836654	1
0	689	47.121382681307	1
0	708	47.869464670154	1
0	719	48.287844930965	1
0	725	48.452303767629	1
0	740	49.19321687343	1
0	751	50.266116066763	1
0	762	51.818700676785	1
0	768	51.938494548377	1
0	779	52.178296245144	1
0	793	52.737637314156	1
0	804	55.884471127544	1
0	815	57.964115708569	1
0	826	59.574821582955	1
0	837	61.090897161392	1
0	846	61.468078265669	1
0	851	61.534957927824	1
0	867	62.120111932172	1
0	878	65.196939744959	1
0	889	66.565405153124	1
0	900	67.588056705925	1
0	903	67.636843496652	1
0	919	68.842017347851	1
0	930	70.531670178007	1
0	941	71.824549837366	1
0	944	71.833990241235	1
0	960	73.911550175631	1
0	969	74.139220017292	1
0	975	74.275837269875	1
0	986	74.461434691684	1
0	1002	75.886880736614	1
0	1013	78.318126427048	1
0	1024	80.047227617705	1
0	1035	81.850383928159	1
0	1046	83.529865735908	1
0	1055	83.779848643358	1
0	1058	83.807959627173	1
0	1076	85.481272090331	1
0	1087	85.951437001369	1
0	1096	86.274529527416	1
0	1109	86.820706690094	1
0	1120	89.710757315901	1
0	1131	90.409285769299	1
0	1140	90.806369749776	1
0	1153	91.451413255552	1
0	1164	92.14829303241	1
0	1170	92.281060863786	1
0	1185	94.713262658632	1
0	1196	98.664720834003	1
0	1199	98.674936420584	1
0	1201	98.739498592909	1
0	1219	99.18171017574	1
0	1233	100.004217737796	1
0	1244	101.448636247776	1
0	1255	102.274515990414	1
0	1266	102.938222384977	1
0	1277	105.870383978504	1
0	1280	105.928579461331	1
0	1290	106.137535158237	1
0	1302	106.380446758716	1
0	1305	106.463099340265	1
0	1324	109.459038725773	1
0	1335	111.504384221971	1
0	1341	111.675296229556	1
0	1344	111.690325877695	1
0	1362	112.108564441112	1
0	1375	113.616832145707	1
0	1386	117.190261013441	1
0	1397	118.57900816946	1
0	1408	119.149356724076	1
0	1419	121.102620522435	1
0	1430	122.147688874391	1
0	1441	124.502026275462	1
0	1452	124.976432049755	1
0	1461	125.280382637681	1
0	1474	126.277308514172	1
0	1483	126.533510663118	1
0	1496	127.760475589312	1
0	1505	128.113702079863	1
0	1518	130.433447861139	1
0	1529	131.628097278892	1
0	1538	131.927792841618	1
0	1541	132.009834270367	1
0	1557	132.483411392764	1
0	1570	133.552567952184	1
0	1581	134.619879641002	1
0	1592	136.477728045615	1
0	1603	137.114975753089	1
0	1614	138.236518879892	1
0	1625	138.942531562445	1
0	1636	140.403162812505	1
0	1645	140.78545884665	1
0	1658	141.199510435697	1
0	1669	144.233769219953	1
0	1678	144.470041469947	1
0	1689	144.719164456068	1
0	1700	144.986618794407	1
0	1713	146.348082674098	1
0	1724	147.582888582504	1
0	1730	147.747549805421	1
0	1736	147.810512305871	1
0	1753	151.557558994172	1
0	1764	152.131981795448	1
0	1773	152.405747880951	1
0	1786	153.041108489111	1
0	1792	153.20490933035	1
0	1807	154.177789408753	1
0	1818	154.916375262276	1
0	1824	155.023001740364	1
0	1833	155.175803150842	1
0	1849	155.985583823998	1
0	1860	156.879811334795	1
0	1871	159.945991735548	1
0	1882	160.74393395413	1
0	1893	161.432694052789	1
0	1904	163.221348132081	1
0	1915	164.022733250673	1
0	1918	164.039507444897	1
0	1934	168.241741335368	1
0	1945	168.673137809185	1
0	1956	170.37267728705	1
0	1967	171.29741099	1
0	1978	171.95238034551	1
0	1987	172.200125094475	1
0	1990	172.279493911296	1
0	2008	172.872413484012	1
0	2019	174.818305339773	1
0	2030	175.524781571774	1
0	2041	176.710927038567	1
0	2052	177.799258774974	1
0	2063	179.050585930639	1
0	2069	179.177066987489	1
0	2084	180.825425696294	1
0	2095	181.300028901901	1
0	2106	182.598118612997	1
0	2112	182.737819059753	1
0	2127	183.244014356369	1
0	2138	183.837758016239	1
0	2149	184.524607079956	1
0	2160	185.187413246124	1
0	2171	186.968022071355	1
0	2177	187.102872623943	1
0	2192	188.962989246315	1
0	2203	191.56551352263	1
0	2212	191.918717650726	1
0	2225	192.787400708827	1
0	2231	192.908180228583	1
0	2246	193.67506223059	1
0	2257	194.374233819083	1
0	2268	197.538565852	1
0	2279	198.104699212343	1
0	2285	198.261634888427	1
1	2	0.331628297639	1
1	8	0.52221853896	1
1	23	1.240676724659	1
1	34	3.007106139616	1
1	43	3.209076433119	1
1	56	5.296234087589	1
1	59	5.363033865548	1
1	75	6.924966629262	1
1	86	8.394041748532	1
1	97	8.895652396449	1
1	108	9.910331847267	1
1	114	10.013589785305	1
1	129	10.9776388213	1
1	138	11.213069549287	1
1	151	12.027300948618	1
1	162	12.971218467508	1
1	165	13.009072488968	1
1	181	14.876364683925	1
1	192	15.297097534219	1
1	195	15.337138572399	1
1	211	18.104413908059	1
1	222	19.393557030633	1
1	225	19.452383817287	1
1	241	20.255077904576	1
1	252	22.150717437323	1
1	255	22.183887365618	1
1	271	24.176926296804	1
1	280	24.407515578245	1
1	283	24.457438622538	1
1	301	25.092598405729	1
1	312	26.096517038501	1
1	321	26.399020109108	1
1	334	27.161306972933	1
1	340	27.281738146394	1
1	355	28.146326598342	1
1	364	28.484671319954	1
1	377	29.112369955915	1
1	388	29.563221515482	1
1	397	29.879251297155	1
1	400	29.880319601773	1
1	414	30.216079273615	1
1	428	30.832992734766	1
1	439	31.616187719539	1
1	450	32.322748995931	1
1	461	32.801795644144	1
1	464	32.846988067704	1
1	480	34.323743809285	1
1	489	34.697260268218	1
1	502	35.212271849359	1
1	513	35.704867752827	1
1	519	35.852471788726	1
1	532	36.186921282931	1
1	540	36.342328172918	1
1	555	37.381650521923	1
1	558	37.435635012021	1
1	574	38.128207321281	1
1	585	39.330888427267	1
1	596	40.68033368026	1
1	605	41.008805237207	1
1	613	41.193305891746	1
1	624	41.403837357421	1
1	638	42.086364312509	1
1	649	43.777375972062	1
1	660	45.276817161837	1
1	671	46.07416084209	1
1	682	46.977538182184	1
1	685	47.059169836654	1
1	690	47.121382681307	1
1	709	47.869464670154	1
1	720	48.287844930965	1
1	726	48.452303767629	1
1	741	49.19321687343	1
1	752	50.266116066763	1
1	763	51.818700676785	1
1	769	51.938494548377	1
1	780	52.178296245144	1
1	794	52.737637314156	1
1	805	55.884471127544	1
1	816	57.964115708569	1
1	827	59.574821582955	1
1	838	61.090897161392	1
1	847	61.468078265669	1
1	852	61.534957927824	1
1	868	62.120111932172	1
1	879	65.196939744959	1
1	890	66.565405153124	1
1	901	67.588056705925	1
1	904	67.636843496652	1
1	920	68.842017347851	1
1	931	70.531670178007	1
1	942	71.824549837366	1
1	945	71.833990241235	1
1	961	73.911550175631	1
1	970	74.139220017292	1
1	976	74.275837269875	1
1	987	74.461434691684	1
1	1003	75.886880736614	1
1	1014	78.318126427048	1
1	1025	80.047227617705	1
1	1036	81.850383928159	1
1	1047	83.529865735908	1
1	1056	83.779848643358	1
1	1059	83.807959627173	1
1	1077	85.481272090331	1
1	1088	85.951437001369	1
1	1097	86.274529527416	1
1	1110	86.820706690094	1
1	1121	89.710757315901	1
1	1132	90.409285769299	1
1	1141	90.806369749776	1
1	1154	91.451413255552	1
1	1165	92.14829303241	1
1	1171	92.281060863786	1
1	1186	94.713262658632	1
1	1197	98.664720834003	1
1	1200	98.674936420584	1
1	1202	98.739498592909	2
1	1220	99.18171017574	1
1	1234	100.004217737796	1
1	1245	101.448636247776	1
1	1256	102.274515990414	1
1	1267	102.938222384977	1
1	1278	105.870383978504	1
1	1281	105.928579461331	1
1	1291	106.137535158237	1
1	1303	106.380446758716	1
1	1306	106.463099340265	1
1	1325	109.459038725773	1
1	1336	111.504384221971	1
1	1342	111.675296229556	1
1	1345	111.690325877695	1
1	1363	112.108564441112	1
1	1376	113.616832145707	1
1	1387	117.190261013441	1
1	1398	118.57900816946	1
1	1409	119.149356724076	1
1	1420	121.102620522435	1
1	1431	122.147688874391	1
1	1442	124.502026275462	1
1	1453	124.976432049755	1
1	1462	125.280382637681	1
1	1475	126.277308514172	1
1	1484	126.533510663118	1
1	1497	127.760475589312	1
1	1506	128.113702079863	1
1	1519	130.433447861139	1
1	1530	131.628097278892	1
1	1539	131.927792841618	1
1	1542	132.009834270367	1
1	1558	132.483411392764	1
1	1571	133.552567952184	1
1	1582	134.619879641002	1
1	1593	136.477728045615	1
1	1604	137.114975753089	1
1	1615	138.236518879892	1
1	1626	138.942531562445	1
1	1637	140.403162812505	1
1	1646	140.78545884665	1
1	1659	141.199510435697	1
1	1670	144.233769219953	1
1	1679	144.470041469947	1
1	1690	144.719164456068	1
1	1701	144.986618794407	1
1	1714	146.348082674098	1
1	1725	147.582888582504	1
1	1731	147.747549805421	1
1	1737	147.810512305871	1
1	1754	151.557558994172	1
1	1765	152.131981795448	1
1	1774	152.405747880951	1
1	1787	153.041108489111	1
1	1793	153.20490933035	1
1	1808	154.177789408753	1
1	1819	154.916375262276	1
1	1825	155.023001740364	1
1	1834	155.175803150842	1
1	1850	155.985583823998	1
1	1861	156.879811334795	1
1	1872	159.945991735548	1
1	1883	160.74393395413	1
1	1894	161.432694052789	1
1	1905	163.221348132081	1
1	1916	164.022733250673	1
1	1919	164.039507444897	1
1	1935	168.241741335368	1
1	1946	168.673137809185	1
1	1957	170.37267728705	1
1	1968	171.29741099	1
1	1979	171.95238034551	1
1	1988	172.200125094475	1
1	1991	172.279493911296	1
1	2009	172.872413484012	1
1	2020	174.818305339773	1
1	2031	175.524781571774	1
1	2042	176.710927038567	1
1	2053	177.799258774974	1
1	2064	179.050585930639	1
1	2070	179.177066987489	1
1	2085	180.825425696294	1
1	2096	181.300028901901	1
1	2107	182.598118612997	1
1	2113	182.737819059753	1
1	2128	183.244014356369	1
1	2139	183.837758016239	1
1	2150	184.524607079956	1
1	2161	185.187413246124	1
1	2172	186.968022071355	1
1	2178	187.102872623943	1
1	2193	188.962989246315	1
1	2204	191.56551352263	1
1	2213	191.918717650726	1
1	2226	192.787400708827	1
1	2232	192.908180228583	1
1	2247	193.67506223059	1
1	2258	194.374233819083	1
1	2269	197.538565852	1
1	2280	198.104699212343	1
1	2286	198.261634888427	1
2	5	0.431728297639	1
2	14	0.62231853896	1
2	26	1.340776724659	1
2	37	3.107206139616	1
2	46	3.309176433119	1
2	61	5.396334087589	1
2	64	5.496334087589	1
2	78	7.025066629262	1
2	89	8.494141748532	1
2	100	8.995752396449	1
2	111	10.010431847267	1
2	120	10.113689785305	1
2	132	11.0777388213	1
2	141	11.313169549287	1
2	154	12.127400948618	1
2	167	13.071318467508	1
2	170	13.171318467508	1
2	184	14.976464683925	1
2	197	15.397197534219	1
2	200	15.497197534219	1
2	214	18.204513908059	1
2	227	19.493657030633	1
2	230	19.593657030633	1
2	244	20.355177904576	1
2	257	22.250817437323	1
2	260	22.350817437323	1
2	274	24.277026296804	1
2	285	24.507615578245	1
2	290	24.607615578245	1
2	304	25.192698405729	1
2	315	26.196617038501	1
2	326	26.499120109108	1
2	337	27.261406972933	1
2	346	27.381838146394	1
2	358	28.246426598342	1
2	369	28.584771319954	1
2	380	29.212469955915	1
2	391	29.663321515482	1
2	404	29.979351297155	1
2	407	30.079351297155	1
2	419	30.316179273615	1
2	431	30.933092734766	1
2	442	31.716287719539	1
2	453	32.422848995931	1
2	466	32.901895644144	1
2	469	33.001895644144	1
2	483	34.423843809285	1
2	494	34.797360268218	1
2	505	35.312371849359	1
2	516	35.804967752827	1
2	525	35.952571788726	1
2	535	36.287021282931	1
2	546	36.442428172918	1
2	560	37.481750521923	1
2	563	37.581750521923	1
2	577	38.228307321281	1
2	588	39.430988427267	1
2	599	40.78043368026	1
2	610	41.108905237207	1
2	619	41.293405891746	1
2	629	41.503937357421	1
2	641	42.186464312509	1
2	652	43.877475972062	1
2	663	45.376917161837	1
2	674	46.17426084209	1
2	687	47.077638182184	1
2	692	47.177638182184	1
2	697	47.277638182184	1
2	712	47.969564670154	1
2	723	48.387944930965	1
2	732	48.552403767629	1
2	744	49.29331687343	1
2	755	50.366216066763	1
2	766	51.918800676785	1
2	775	52.038594548377	1
2	785	52.278396245144	1
2	797	52.837737314156	1
2	808	55.984571127544	1
2	819	58.064215708569	1
2	830	59.674921582955	1
2	841	61.190997161392	1
2	854	61.568178265669	1
2	857	61.668178265669	1
2	871	62.220211932172	1
2	882	65.297039744959	1
2	893	66.665505153124	1
2	906	67.688156705925	1
2	909	67.788156705925	1
2	923	68.942117347851	1
2	934	70.631770178007	1
2	947	71.924649837366	1
2	950	72.024649837366	1
2	964	74.011650175631	1
2	973	74.239320017292	1
2	984	74.375937269875	1
2	994	74.561534691684	1
2	1006	75.986980736614	1
2	1017	78.418226427048	1
2	1028	80.147327617705	1
2	1039	81.950483928159	1
2	1050	83.629965735908	1
2	1061	83.879948643358	1
2	1066	83.979948643358	1
2	1080	85.581372090331	1
2	1091	86.051537001369	1
2	1102	86.374629527416	1
2	1113	86.920806690094	1
2	1124	89.810857315901	1
2	1135	90.509385769299	1
2	1146	90.906469749776	1
2	1157	91.551513255552	1
2	1168	92.24839303241	1
2	1177	92.381160863786	1
2	1189	94.813362658632	1
2	1204	98.764820834003	1
2	1207	98.864820834003	1
2	1212	98.964820834003	1
2	1225	99.28181017574	1
2	1237	100.104317737796	1
2	1248	101.548736247776	1
2	1259	102.374615990414	1
2	1270	103.038322384977	1
2	1283	105.970483978504	1
2	1286	106.070483978504	1
2	1296	106.237635158237	1
2	1310	106.480546758716	1
2	1313	106.580546758716	1
2	1328	109.559138725773	1
2	1339	111.604484221971	1
2	1350	111.775396229556	1
2	1353	111.875396229556	1
2	1366	112.208664441112	1
2	1379	113.716932145707	1
2	1390	117.290361013441	1
2	1401	118.67910816946	1
2	1412	119.249456724076	1
2	1423	121.202720522435	1
2	1434	122.247788874391	1
2	1445	124.602126275462	1
2	1456	125.076532049755	1
2	1467	125.380482637681	1
2	1478	126.377408514172	1
2	1487	126.633610663118	1
2	1500	127.860575589312	1
2	1511	128.213802079863	1
2	1522	130.533547861139	1
2	1533	131.728197278892	1
2	1544	132.027892841618	1
2	1549	132.127892841618	1
2	1563	132.583511392764	1
2	1574	133.652667952184	1
2	1585	134.719979641002	1
2	1596	136.577828045615	1
2	1607	137.215075753089	1
2	1618	138.336618879892	1
2	1629	139.042631562445	1
2	1640	140.503262812505	1
2	1651	140.88555884665	1
2	1662	141.299610435697	1
2	1673	144.333869219953	1
2	1682	144.570141469947	1
2	1693	144.819264456068	1
2	1704	145.086718794407	1
2	1717	146.448182674098	1
2	1728	147.682988582504	1
2	1739	147.847649805421	1
2	1742	147.947649805421	1
2	1757	151.657658994172	1
2	1768	152.232081795448	1
2	1777	152.505847880951	1
2	1790	153.141208489111	1
2	1799	153.30500933035	1
2	1811	154.277889408753	1
2	1822	155.016475262276	1
2	1831	155.123101740364	1
2	1839	155.275903150842	1
2	1853	156.085683823998	1
2	1864	156.979911334795	1
2	1875	160.046091735548	1
2	1886	160.84403395413	1
2	1897	161.532794052789	1
2	1908	163.321448132081	1
2	1921	164.122833250673	1
2	1924	164.222833250673	1
2	1938	168.341841335368	1
2	1949	168.773237809185	1
2	1960	170.47277728705	1
2	1971	171.39751099	1
2	1982	172.05248034551	1
2	1993	172.300225094475	1
2	1998	172.400225094475	1
2	2012	172.972513484012	1
2	2023	174.918405339773	1
2	2034	175.624881571774	1
2	2045	176.811027038567	1
2	2056	177.899358774974	1
2	2067	179.150685930639	1
2	2076	179.277166987489	1
2	2088	180.925525696294	1
2	2099	181.400128901901	1
2	2110	182.698218612997	1
2	2119	182.837919059753	1
2	2131	183.344114356369	1
2	2142	183.937858016239	1
2	2153	184.624707079956	1
2	2164	185.287513246124	1
2	2175	187.068122071355	1
2	2184	187.202972623943	1
2	2196	189.063089246315	1
2	2207	191.66561352263	1
2	2218	192.018817650726	1
2	2229	192.887500708827	1
2	2238	193.008280228583	1
2	2250	193.77516223059	1
2	2261	194.474333819083	1
2	2272	197.638665852	1
2	2283	198.204799212343	1
2	2292	198.361734888427	1
3	11	0.531828297639	1
3	17	0.72241853896	1
3	29	1.440876724659	1
3	40	3.207306139616	1
3	51	3.409276433119	1
3	66	5.496434087589	1
3	69	5.596434087589	1
3	81	7.125166629262	1
3	92	8.594241748532	1
3	103	9.095852396449	1
3	117	10.110531847267	1
3	123	10.213789785305	1
3	135	11.1778388213	1
3	146	11.413269549287	1
3	157	12.227500948618	1
3	172	13.171418467508	1
3	175	13.271418467508	1
3	187	15.076564683925	1
3	202	15.497297534219	1
3	205	15.597297534219	1
3	217	18.304613908059	1
3	232	19.593757030633	1
3	235	19.693757030633	1
3	247	20.455277904576	1
3	262	22.350917437323	1
3	265	22.450917437323	1
3	277	24.377126296804	1
3	292	24.607715578245	1
3	295	24.707715578245	1
3	307	25.292798405729	1
3	318	26.296717038501	1
3	329	26.599220109108	1
3	343	27.361506972933	1
3	349	27.481938146394	1
3	361	28.346526598342	1
3	372	28.684871319954	1
3	383	29.312569955915	1
3	394	29.763421515482	1
3	409	30.079451297155	1
3	412	30.179451297155	1
3	422	30.416279273615	1
3	434	31.033192734766	1
3	445	31.816387719539	1
3	456	32.522948995931	1
3	471	33.001995644144	1
3	474	33.101995644144	1
3	486	34.523943809285	1
3	497	34.897460268218	1
3	508	35.412471849359	1
3	522	35.905067752827	1
3	528	36.052671788726	1
3	543	36.387121282931	1
3	549	36.542528172918	1
3	565	37.581850521923	1
3	568	37.681850521923	1
3	580	38.328407321281	1
3	591	39.531088427267	1
3	602	40.88053368026	1
3	616	41.209005237207	1
3	622	41.393505891746	1
3	632	41.604037357421	1
3	644	42.286564312509	1
3	655	43.977575972062	1
3	666	45.477017161837	1
3	677	46.27436084209	1
3	694	47.177738182184	1
3	699	47.277738182184	1
3	703	47.377738182184	1
3	715	48.069664670154	1
3	729	48.488044930965	1
3	735	48.652503767629	1
3	747	49.39341687343	1
3	758	50.466316066763	1
3	772	52.018900676785	1
3	778	52.138694548377	1
3	788	52.378496245144	1
3	800	52.937837314156	1
3	811	56.084671127544	1
3	822	58.164315708569	1
3	833	59.775021582955	1
3	844	61.291097161392	1
3	859	61.668278265669	1
3	862	61.768278265669	1
3	874	62.320311932172	1
3	885	65.397139744959	1
3	896	66.765605153124	1
3	911	67.788256705925	1
3	914	67.888256705925	1
3	926	69.042217347851	1
3	937	70.731870178007	1
3	952	72.024749837366	1
3	955	72.124749837366	1
3	967	74.111750175631	1
3	981	74.339420017292	1
3	990	74.476037269875	1
3	997	74.661634691684	1
3	1009	76.087080736614	1
3	1020	78.518326427048	1
3	1031	80.247427617705	1
3	1042	82.050583928159	1
3	1053	83.730065735908	1
3	1068	83.980048643358	1
3	1071	84.080048643358	1
3	1083	85.681472090331	1
3	1094	86.151637001369	1
3	1105	86.474729527416	1
3	1116	87.020906690094	1
3	1127	89.910957315901	1
3	1138	90.609485769299	1
3	1149	91.006569749776	1
3	1160	91.651613255552	1
3	1174	92.34849303241	1
3	1180	92.481260863786	1
3	1192	94.913462658632	1
3	1209	98.864920834003	1
3	1214	98.964920834003	1
3	1218	99.064920834003	1
3	1228	99.38191017574	1
3	1240	100.204417737796	1
3	1251	101.648836247776	1
3	1262	102.474715990414	1
3	1273	103.138422384977	1
3	1288	106.070583978504	1
3	1294	106.170583978504	1
3	1301	106.337735158237	1
3	1315	106.580646758716	1
3	1319	106.680646758716	1
3	1331	109.659238725773	1
3	1347	111.704584221971	1
3	1355	111.875496229556	1
3	1359	111.975496229556	1
3	1371	112.308764441112	1
3	1382	113.817032145707	1
3	1393	117.390461013441	1
3	1404	118.77920816946	1
3	1415	119.349556724076	1
3	1426	121.302820522435	1
3	1437	122.347888874391	1
3	1448	124.702226275462	1
3	1459	125.176632049755	1
3	1470	125.480582637681	1
3	1481	126.477508514172	1
3	1492	126.733710663118	1
3	1503	127.960675589312	1
3	1514	128.313902079863	1
3	1525	130.633647861139	1
3	1536	131.828297278892	1
3	1551	132.127992841618	1
3	1554	132.227992841618	1
3	1566	132.683611392764	1
3	1577	133.752767952184	1
3	1588	134.820079641002	1
3	1599	136.677928045615	1
3	1610	137.315175753089	1
3	1621	138.436718879892	1
3	1632	139.142731562445	1
3	1643	140.603362812505	1
3	1654	140.98565884665	1
3	1665	141.399710435697	1
3	1676	144.433969219953	1
3	1687	144.670241469947	1
3	1698	144.919364456068	1
3	1709	145.186818794407	1
3	1720	146.548282674098	1
3	1734	147.783088582504	1
3	1744	147.947749805421	1
3	1748	148.047749805421	1
3	1760	151.757758994172	1
3	1771	152.332181795448	1
3	1782	152.605947880951	1
3	1796	153.241308489111	1
3	1802	153.40510933035	1
3	1814	154.377989408753	1
3	1828	155.116575262276	1
3	1837	155.223201740364	1
3	1844	155.376003150842	1
3	1856	156.185783823998	1
3	1867	157.080011334795	1
3	1878	160.146191735548	1
3	1889	160.94413395413	1
3	1900	161.632894052789	1
3	1911	163.421548132081	1
3	1926	164.222933250673	1
3	1929	164.322933250673	1
3	1941	168.441941335368	1
3	1952	168.873337809185	1
3	1963	170.57287728705	1
3	1974	171.49761099	1
3	1985	172.15258034551	1
3	2000	172.400325094475	1
3	2003	172.500325094475	1
3	2015	173.072613484012	1
3	2026	175.018505339773	1
3	2037	175.724981571774	1
3	2048	176.911127038567	1
3	2059	177.999458774974	1
3	2073	179.250785930639	1
3	2079	179.377266987489	1
3	2091	181.025625696294	1
3	2102	181.500228901901	1
3	2116	182.798318612997	1
3	2122	182.938019059753	1
3	2134	183.444214356369	1
3	2145	184.037958016239	1
3	2156	184.724807079956	1
3	2167	185.387613246124	1
3	2181	187.168222071355	1
3	2187	187.303072623943	1
3	2199	189.163189246315	1
3	2210	191.76571352263	1
3	2221	192.118917650726	1
3	2235	192.987600708827	1
3	2241	193.108380228583	1
3	2253	193.87526223059	1
3	2264	194.574433819083	1
3	2275	197.738765852	1
3	2289	198.304899212343	1
3	2295	198.461834888427	1
4	18	0.731828297639	0.4002
4	20	0.931828297639	0.409609758679
4	31	1.640876724659	0.4002
4	48	3.407306139616	0.4002
4	53	3.609276433119	0.4002
4	70	5.696434087589	0.4002
4	72	5.896434087589	0.533400222041
4	83	7.325166629262	0.4002
4	94	8.794241748532	0.4002
4	105	9.295852396449	0.4002
4	124	10.310531847267	0.4002
4	126	10.510531847267	0.496942061962
4	143	11.3778388213	0.4002
4	148	11.613269549287	0.4002
4	159	12.427500948618	0.4002
4	176	13.371418467508	0.4002
4	178	13.571418467508	0.56234597854
4	189	15.276564683925	0.4002
4	206	15.697297534219	0.4002
4	208	15.897297534219	0.56015896182
4	219	18.504613908059	0.4002
4	236	19.793757030633	0.4002
4	238	19.993757030633	0.541373213346
4	249	20.655277904576	0.4002
4	266	22.550917437323	0.4002
4	268	22.750917437323	0.567030071705
4	287	24.577126296804	0.4002
4	296	24.807715578245	0.4002
4	298	25.007715578245	0.550276955707
4	309	25.492798405729	0.4002
4	323	26.496717038501	0.4002
4	331	26.799220109108	0.4002
4	350	27.561506972933	0.4002
4	352	27.761506972933	0.479768826539
4	366	28.546526598342	0.4002
4	374	28.884871319954	0.4002
4	385	29.512569955915	0.4002
4	401	29.963421515482	0.4002
4	416	30.279451297155	0.4002
4	423	30.479451297155	0.599131695382
4	425	30.679451297155	0.46337202354
4	436	31.233192734766	0.4002
4	447	32.016387719539	0.4002
4	458	32.722948995931	0.4002
4	475	33.201995644144	0.4002
4	477	33.401995644144	0.55500757644
4	491	34.723943809285	0.4002
4	499	35.097460268218	0.4002
4	510	35.612471849359	0.4002
4	529	36.105067752827	0.4002
4	537	36.305067752827	0.452595964101
4	550	36.587121282931	0.4002
4	552	36.787121282931	0.444793110013
4	569	37.781850521923	0.4002
4	571	37.981850521923	0.546215509902
4	582	38.528407321281	0.4002
4	593	39.731088427267	0.4002
4	607	41.08053368026	0.4002
4	626	41.409005237207	0.4002
4	633	41.609005237207	0.415699345461
4	635	41.809005237207	0.405167879786
4	646	42.486564312509	0.4002
4	657	44.177575972062	0.4002
4	668	45.677017161837	0.4002
4	679	46.47436084209	0.4002
4	701	47.377738182184	0.4002
4	704	47.577738182184	0.51856834553
4	706	47.777738182184	0.656355500877
4	717	48.269664670154	0.4002
4	736	48.688044930965	0.4002
4	738	48.888044930965	0.435741163336
4	749	49.59341687343	0.4002
4	760	50.666316066763	0.4002
4	782	52.218900676785	0.4002
4	789	52.418900676785	0.480406128408
4	791	52.618900676785	0.440604431641
4	802	53.137837314156	0.4002
4	813	56.284671127544	0.4002
4	824	58.364315708569	0.4002
4	835	59.975021582955	0.4002
4	849	61.491097161392	0.4002
4	863	61.868278265669	0.4002
4	865	62.068278265669	0.533320337845
4	876	62.520311932172	0.4002
4	887	65.597139744959	0.4002
4	898	66.965605153124	0.4002
4	915	67.988256705925	0.4002
4	917	68.188256705925	0.551413209273
4	928	69.242217347851	0.4002
4	939	70.931870178007	0.4002
4	956	72.224749837366	0.4002
4	958	72.424749837366	0.590759596131
4	978	74.311750175631	0.4002
4	991	74.539420017292	0.4002
4	998	74.739420017292	0.463582747417
4	1000	74.939420017292	0.477985325608
4	1011	76.287080736614	0.4002
4	1022	78.718326427048	0.4002
4	1033	80.447427617705	0.4002
4	1044	82.250583928159	0.4002
4	1063	83.930065735908	0.4002
4	1072	84.180048643358	0.4002
4	1074	84.380048643358	0.572089016185
4	1085	85.881472090331	0.4002
4	1099	86.351637001369	0.4002
4	1107	86.674729527416	0.4002
4	1118	87.220906690094	0.4002
4	1129	90.110957315901	0.4002
4	1143	90.809485769299	0.4002
4	1151	91.206569749776	0.4002
4	1162	91.851613255552	0.4002
4	1181	92.54849303241	0.4002
4	1183	92.74849303241	0.467432168624
4	1194	95.113462658632	0.4002
4	1216	99.064920834003	0.4002
4	1222	99.264920834003	0.589984413419
4	1229	99.464920834003	0.725422241094
4	1231	99.664920834003	0.483210658263
4	1242	100.404417737796	0.4002
4	1253	101.848836247776	0.4002
4	1264	102.674715990414	0.4002
4	1275	103.338422384977	0.4002
4	1298	106.270583978504	0.4002
4	1307	106.470583978504	0.542004517173
4	1316	106.670583978504	0.533048820267
4	1320	106.870583978504	0.490137219788
4	1322	107.070583978504	0.607484638239
4	1333	109.859238725773	0.4002
4	1356	111.904584221971	0.4002
4	1360	112.104584221971	0.429287992415
4	1368	112.304584221971	0.614258344276
4	1373	112.508764441112	0.4002
4	1384	114.017032145707	0.4002
4	1395	117.590461013441	0.4002
4	1406	118.97920816946	0.4002
4	1417	119.549556724076	0.4002
4	1428	121.502820522435	0.4002
4	1439	122.547888874391	0.4002
4	1450	124.902226275462	0.4002
4	1464	125.376632049755	0.4002
4	1472	125.680582637681	0.4002
4	1489	126.677508514172	0.4002
4	1494	126.933710663118	0.4002
4	1508	128.160675589312	0.4002
4	1516	128.513902079863	0.4002
4	1527	130.833647861139	0.4002
4	1546	132.028297278892	0.4002
4	1555	132.327992841618	0.4002
4	1560	132.527992841618	0.518158571251
4	1568	132.883611392764	0.4002
4	1579	133.952767952184	0.4002
4	1590	135.020079641002	0.4002
4	1601	136.877928045615	0.4002
4	1612	137.515175753089	0.4002
4	1623	138.636718879892	0.4002
4	1634	139.342731562445	0.4002
4	1648	140.803362812505	0.4002
4	1656	141.18565884665	0.4002
4	1667	141.599710435697	0.4002
4	1684	144.633969219953	0.4002
4	1695	144.870241469947	0.4002
4	1706	145.119364456068	0.4002
4	1711	145.386818794407	0.4002
4	1722	146.748282674098	0.4002
4	1745	147.983088582504	0.4002
4	1749	148.183088582504	0.435538777083
4	1751	148.383088582504	0.572576276633
4	1762	151.957758994172	0.4002
4	1779	152.532181795448	0.4002
4	1784	152.805947880951	0.4002
4	1803	153.441308489111	0.4002
4	1805	153.641308489111	0.436399158761
4	1816	154.577989408753	0.4002
4	1841	155.316575262276	0.4002
4	1845	155.516575262276	0.493573521912
4	1847	155.716575262276	0.540772111434
4	1858	156.385783823998	0.4002
4	1869	157.280011334795	0.4002
4	1880	160.346191735548	0.4002
4	1891	161.14413395413	0.4002
4	1902	161.832894052789	0.4002
4	1913	163.621548132081	0.4002
4	1930	164.422933250673	0.4002
4	1932	164.622933250673	0.583425805776
4	1943	168.641941335368	0.4002
4	1954	169.073337809185	0.4002
4	1965	170.77287728705	0.4002
4	1976	171.69761099	0.4002
4	1995	172.35258034551	0.4002
4	2004	172.600325094475	0.4002
4	2006	172.800325094475	0.520831183179
4	2017	173.272613484012	0.4002
4	2028	175.218505339773	0.4002
4	2039	175.924981571774	0.4002
4	2050	177.111127038567	0.4002
4	2061	178.199458774974	0.4002
4	2080	179.450785930639	0.4002
4	2082	179.650785930639	0.47371894315
4	2093	181.225625696294	0.4002
4	2104	181.700228901901	0.4002
4	2123	182.998318612997	0.4002
4	2125	183.198318612997	0.460499553244
4	2136	183.644214356369	0.4002
4	2147	184.237958016239	0.4002
4	2158	184.924807079956	0.4002
4	2169	185.587613246124	0.4002
4	2188	187.368222071355	0.4002
4	2190	187.568222071355	0.465349447412
4	2201	189.363189246315	0.4002
4	2215	191.96571352263	0.4002
4	2223	192.318917650726	0.4002
4	2242	193.187600708827	0.4002
4	2244	193.387600708827	0.479420480244
4	2255	194.07526223059	0.4002
4	2266	194.774433819083	0.4002
4	2277	197.938765852	0.4002
4	2296	198.504899212343	0.4002
4	2298	198.704899212343	0.443264323916
5	18	0.731828297639	1
5	20	0.931828297639	1
5	31	1.640876724659	1
5	48	3.407306139616	1
5	53	3.609276433119	1
5	70	5.696434087589	1
5	72	5.896434087589	1
5	83	7.325166629262	1
5	94	8.794241748532	1
5	105	9.295852396449	1
5	124	10.310531847267	1
5	126	10.510531847267	1
5	143	11.3778388213	1
5	148	11.613269549287	1
5	159	12.427500948618	1
5	176	13.371418467508	1
5	178	13.571418467508	1
5	189	15.276564683925	1