version 3
run BaseVersion-15-20240511-20:45:07-11874
attr configname BaseVersion
attr datetime 20240511-20:45:07
attr datetimef 20240511-204507
attr experiment BaseVersion
attr inifile omnetpp.ini
attr iterationvars $genInterval=0.85
attr iterationvarsd genInterval=0.85
attr iterationvarsf genInterval=0.85-
attr measurement $genInterval=0.85
attr network Network
attr processid 11874
attr repetition 0
attr replication #0
attr resultdir results
attr runnumber 15
attr seedset 15
itervar genInterval 0.85
config network Network
config sim-time-limit 200s
config Network.nodeTx.gen.generationInterval exponential(0.85)
config Network.nodeTx.gen.packetByteSize 12500
config Network.nodeTx.queue.bufferSize 200
config Network.nodeRx.queue.bufferSize 200
config Network.queue.bufferSize 200

vector 0 Network.nodeTx.gen packetGen ETV
vector 1 Network.nodeTx.queue bufferSize ETV
vector 2 Network.queue bufferSize ETV
vector 3 Network.nodeRx.queue bufferSize ETV
vector 4 Network.nodeRx.sink Delay ETV
vector 5 Network.nodeRx.sink packetUsed ETV
0	1	1.605878513779	1
0	12	3.033670692803	1
0	18	3.201210290764	1
0	33	3.961882484723	1
0	36	4.009394710251	1
0	41	4.109390969504	1
0	56	4.490780715754	1
0	70	5.941829032776	1
0	79	6.215645291345	1
0	92	8.43619798228	1
0	103	9.077967594149	1
0	106	9.099446788226	1
0	118	9.409838300807	1
0	132	10.878338981365	1
0	141	11.186963270937	1
0	154	12.268756754268	1
0	160	12.369475149015	1
0	171	12.572111188515	1
0	181	12.816526499502	1
0	195	14.566749339626	1
0	206	16.688802195025	1
0	209	16.716882145584	1
0	219	16.977598145022	1
0	235	17.570209466339	1
0	246	18.645498561612	1
0	257	19.325899186667	1
0	268	21.032521625805	1
0	279	24.571378271256	1
0	290	25.970033720731	1
0	301	26.436562648391	1
0	310	26.63751923806	1
0	323	28.161590345905	1
0	329	28.317151760721	1
0	344	29.357459992154	1
0	347	29.398117476146	1
0	363	30.664686980147	1
0	366	30.698874337261	1
0	371	30.804254057951	1
0	382	30.994171352129	1
0	396	31.378395852939	1
0	410	36.930299494772	1
0	421	38.404231874304	1
0	430	38.8007305636	1
0	441	39.055699146062	1
0	454	40.270557205015	1
0	457	40.34829734396	1
0	473	40.893534431057	1
0	484	43.695849203574	1
0	495	44.301702893314	1
0	504	44.573492030696	1
0	517	47.039444718979	1
0	526	47.259418963021	1
0	529	47.357944390632	1
0	547	47.909957975826	1
0	558	48.441771252279	1
0	567	48.802975431287	1
0	575	48.93271345747	1
0	588	49.325895808839	1
0	601	49.982899534142	1
0	612	51.090544513548	1
0	621	51.392503166449	1
0	632	51.759342872185	1
0	645	52.415236075107	1
0	656	53.179875131788	1
0	667	54.111049907646	1
0	678	55.573772537167	1
0	687	55.958885291188	1
0	700	57.613377975369	1
0	711	58.442603526876	1
0	722	59.197939680237	1
0	733	60.072801462541	1
0	744	61.562490417237	1
0	755	62.025481872034	1
0	766	63.034179821921	1
0	777	63.472987506021	1
0	786	63.808376674825	1
0	799	64.229114455979	1
0	805	64.351106726006	1
0	818	64.79412253215	1
0	831	66.371501366936	1
0	834	66.442067299356	1
0	850	67.369217652778	1
0	853	67.418951159455	1
0	869	68.541510031612	1
0	872	68.610843697476	1
0	888	69.366442823329	1
0	899	70.377660887292	1
0	905	70.529916464039	1
0	908	70.555070115585	1
0	926	71.116696014466	1
0	939	71.705008667455	1
0	950	72.815615677817	1
0	956	72.936566097793	1
0	971	74.233256531287	1
0	974	74.259809273037	1
0	984	74.513128984383	1
0	1000	75.380327892382	1
0	1006	75.516778409647	1
0	1021	76.018777579488	1
0	1024	76.064429408631	1
0	1040	79.186706728241	1
0	1049	79.539896418576	1
0	1060	79.880005456222	1
0	1071	80.08545952709	1
0	1077	80.270284267542	1
0	1094	81.506582795929	1
0	1105	82.485918209089	1
0	1116	83.015538689195	1
0	1125	83.383142348136	1
0	1138	85.593954125707	1
0	1149	86.847016462229	1
0	1158	87.198078495204	1
0	1171	88.531944165421	1
0	1174	88.626562570081	1
0	1188	89.125309793564	1
0	1201	90.855248996201	1
0	1210	91.121389913547	1
0	1223	92.564828381921	1
0	1226	92.585393939147	1
0	1236	92.793660075156	1
0	1250	93.188190024913	1
0	1261	93.503308441058	1
0	1266	93.590724517018	1
0	1282	94.419573100442	1
0	1293	95.524742596072	1
0	1304	96.182756408328	1
0	1315	96.705640559572	1
0	1326	98.760225868012	1
0	1337	99.384979299679	1
0	1346	99.665356842976	1
0	1359	100.646099975422	1
0	1370	101.419955713098	1
0	1381	101.890762405198	1
0	1387	102.053854587191	1
0	1402	102.840114173705	1
0	1413	103.760937094871	1
0	1424	105.236889254506	1
0	1435	105.919113051779	1
0	1446	106.430171387472	1
0	1455	106.767763593709	1
0	1468	108.628215777992	1
0	1479	109.169778647502	1
0	1488	109.381406306458	1
0	1491	109.438159734831	1
0	1496	109.534184332305	1
0	1517	110.340816730603	1
0	1520	110.351087134656	1
0	1536	111.618894873637	1
0	1547	113.744168257669	1
0	1558	116.573799669686	1
0	1569	117.4341340975	1
0	1580	121.977108612186	1
0	1589	122.188041493096	1
0	1600	122.556880689563	1
0	1613	123.231001572473	1
0	1624	124.020181772688	1
0	1635	126.175590337135	1
0	1646	127.19093078061	1
0	1657	128.962996608465	1
0	1666	129.188628469739	1
0	1672	129.304651989616	1
0	1683	129.441081497354	1
0	1695	129.748703506029	1
0	1700	129.794938427465	1
0	1713	130.092419923608	1
0	1727	132.478235043462	1
0	1738	133.193842342154	1
0	1744	133.327735038575	1
0	1759	134.484001361419	1
0	1770	135.300936759865	1
0	1779	135.641361961041	1
0	1790	136.037449263753	1
0	1803	136.833148497043	1
0	1814	137.737970243441	1
0	1825	138.354220111175	1
0	1834	138.639565503322	1
0	1847	140.784320194879	1
0	1858	141.326680457373	1
0	1864	141.51780574906	1
0	1870	141.559931742288	1
0	1872	141.561330936617	1
0	1895	142.452871472344	1
0	1898	142.516142139902	1
0	1914	143.505956535396	1
0	1925	143.969699628708	1
0	1936	146.682084579926	1
0	1947	147.269421205809	1
0	1950	147.368174432934	1
0	1966	148.092997658624	1
0	1977	149.489705213289	1
0	1988	151.294578151354	1
0	1994	151.40424203008	1
0	2003	151.594679354613	1
0	2019	153.160754734752	1
0	2030	153.625501053939	1
0	2036	153.813761494413	1
0	2051	156.102245759064	1
0	2062	158.206999802103	1
0	2071	158.59072570208	1
0	2084	159.205723951615	1
0	2087	159.218574127681	1
0	2103	160.489661528798	1
0	2114	162.444544998516	1
0	2125	163.289506658723	1
0	2136	164.101725762824	1
0	2145	164.306924759288	1
0	2158	167.314619104679	1
0	2169	167.790229647199	1
0	2180	168.616308251244	1
0	2191	170.748450830511	1
0	2202	173.088485126093	1
0	2213	174.088814107951	1
0	2224	174.865622968316	1
0	2235	175.82568772446	1
0	2241	175.953174580418	1
0	2256	177.062638938043	1
0	2267	178.026851865738	1
0	2270	178.103067679395	1
0	2286	178.774912063485	1
0	2297	179.669044184116	1
0	2300	179.676766888843	1
0	2316	180.475063562972	1
0	2327	181.742102665618	1
0	2336	182.075038570093	1
0	2344	182.185073992411	1
0	2353	182.341497885991	1
0	2369	182.960769624078	1
0	2378	183.25986806256	1
0	2391	184.191360189541	1
0	2394	184.192289429402	1
0	2410	185.41571776198	1
0	2419	185.658735009925	1
0	2432	188.062676951995	1
0	2443	189.051515243984	1
0	2449	189.164033988484	1
0	2458	189.350087191814	1
0	2470	189.550446583859	1
0	2484	191.161534852817	1
0	2493	191.548037929519	1
0	2506	193.199050104431	1
0	2517	193.635079218882	1
0	2528	194.67877738825	1
0	2539	195.436647114943	1
0	2550	196.092024422169	1
1	2	1.605878513779	1
1	13	3.033670692803	1
1	19	3.201210290764	1
1	34	3.961882484723	1
1	37	4.009394710251	1
1	42	4.109390969504	1
1	57	4.490780715754	1
1	71	5.941829032776	1
1	80	6.215645291345	1
1	93	8.43619798228	1
1	104	9.077967594149	1
1	107	9.099446788226	1
1	119	9.409838300807	1
1	133	10.878338981365	1
1	142	11.186963270937	1
1	155	12.268756754268	1
1	161	12.369475149015	1
1	172	12.572111188515	1
1	182	12.816526499502	1
1	196	14.566749339626	1
1	207	16.688802195025	1
1	210	16.716882145584	1
1	220	16.977598145022	1
1	236	17.570209466339	1
1	247	18.645498561612	1
1	258	19.325899186667	1
1	269	21.032521625805	1
1	280	24.571378271256	1
1	291	25.970033720731	1
1	302	26.436562648391	1
1	311	26.63751923806	1
1	324	28.161590345905	1
1	330	28.317151760721	1
1	345	29.357459992154	1
1	348	29.398117476146	1
1	364	30.664686980147	1
1	367	30.698874337261	1
1	372	30.804254057951	1
1	383	30.994171352129	1
1	397	31.378395852939	1
1	411	36.930299494772	1
1	422	38.404231874304	1
1	431	38.8007305636	1
1	442	39.055699146062	1
1	455	40.270557205015	1
1	458	40.34829734396	1
1	474	40.893534431057	1
1	485	43.695849203574	1
1	496	44.301702893314	1
1	505	44.573492030696	1
1	518	47.039444718979	1
1	527	47.259418963021	1
1	530	47.357944390632	1
1	548	47.909957975826	1
1	559	48.441771252279	1
1	568	48.802975431287	1
1	576	48.93271345747	1
1	589	49.325895808839	1
1	602	49.982899534142	1
1	613	51.090544513548	1
1	622	51.392503166449	1
1	633	51.759342872185	1
1	646	52.415236075107	1
1	657	53.179875131788	1
1	668	54.111049907646	1
1	679	55.573772537167	1
1	688	55.958885291188	1
1	701	57.613377975369	1
1	712	58.442603526876	1
1	723	59.197939680237	1
1	734	60.072801462541	1
1	745	61.562490417237	1
1	756	62.025481872034	1
1	767	63.034179821921	1
1	778	63.472987506021	1
1	787	63.808376674825	1
1	800	64.229114455979	1
1	806	64.351106726006	1
1	819	64.79412253215	1
1	832	66.371501366936	1
1	835	66.442067299356	1
1	851	67.369217652778	1
1	854	67.418951159455	1
1	870	68.541510031612	1
1	873	68.610843697476	1
1	889	69.366442823329	1
1	900	70.377660887292	1
1	906	70.529916464039	1
1	909	70.555070115585	1
1	927	71.116696014466	1
1	940	71.705008667455	1
1	951	72.815615677817	1
1	957	72.936566097793	1
1	972	74.233256531287	1
1	975	74.259809273037	1
1	985	74.513128984383	1
1	1001	75.380327892382	1
1	1007	75.516778409647	1
1	1022	76.018777579488	1
1	1025	76.064429408631	1
1	1041	79.186706728241	1
1	1050	79.539896418576	1
1	1061	79.880005456222	1
1	1072	80.08545952709	1
1	1078	80.270284267542	1
1	1095	81.506582795929	1
1	1106	82.485918209089	1
1	1117	83.015538689195	1
1	1126	83.383142348136	1
1	1139	85.593954125707	1
1	1150	86.847016462229	1
1	1159	87.198078495204	1
1	1172	88.531944165421	1
1	1175	88.626562570081	1
1	1189	89.125309793564	1
1	1202	90.855248996201	1
1	1211	91.121389913547	1
1	1224	92.564828381921	1
1	1227	92.585393939147	1
1	1237	92.793660075156	1
1	1251	93.188190024913	1
1	1262	93.503308441058	1
1	1267	93.590724517018	1
1	1283	94.419573100442	1
1	1294	95.524742596072	1
1	1305	96.182756408328	1
1	1316	96.705640559572	1
1	1327	98.760225868012	1
1	1338	99.384979299679	1
1	1347	99.665356842976	1
1	1360	100.646099975422	1
1	1371	101.419955713098	1
1	1382	101.890762405198	1
1	1388	102.053854587191	1
1	1403	102.840114173705	1
1	1414	103.760937094871	1
1	1425	105.236889254506	1
1	1436	105.919113051779	1
1	1447	106.430171387472	1
1	1456	106.767763593709	1
1	1469	108.628215777992	1
1	1480	109.169778647502	1
1	1489	109.381406306458	1
1	1492	109.438159734831	1
1	1497	109.534184332305	1
1	1518	110.340816730603	1
1	1521	110.351087134656	1
1	1537	111.618894873637	1
1	1548	113.744168257669	1
1	1559	116.573799669686	1
1	1570	117.4341340975	1
1	1581	121.977108612186	1
1	1590	122.188041493096	1
1	1601	122.556880689563	1
1	1614	123.231001572473	1
1	1625	124.020181772688	1
1	1636	126.175590337135	1
1	1647	127.19093078061	1
1	1658	128.962996608465	1
1	1667	129.188628469739	1
1	1673	129.304651989616	1
1	1684	129.441081497354	1
1	1696	129.748703506029	1
1	1701	129.794938427465	1
1	1714	130.092419923608	1
1	1728	132.478235043462	1
1	1739	133.193842342154	1
1	1745	133.327735038575	1
1	1760	134.484001361419	1
1	1771	135.300936759865	1
1	1780	135.641361961041	1
1	1791	136.037449263753	1
1	1804	136.833148497043	1
1	1815	137.737970243441	1
1	1826	138.354220111175	1
1	1835	138.639565503322	1
1	1848	140.784320194879	1
1	1859	141.326680457373	1
1	1865	141.51780574906	1
1	1871	141.559931742288	1
1	1873	141.561330936617	2
1	1896	142.452871472344	1
1	1899	142.516142139902	1
1	1915	143.505956535396	1
1	1926	143.969699628708	1
1	1937	146.682084579926	1
1	1948	147.269421205809	1
1	1951	147.368174432934	1
1	1967	148.092997658624	1
1	1978	149.489705213289	1
1	1989	151.294578151354	1
1	1995	151.40424203008	1
1	2004	151.594679354613	1
1	2020	153.160754734752	1
1	2031	153.625501053939	1
1	2037	153.813761494413	1
1	2052	156.102245759064	1
1	2063	158.206999802103	1
1	2072	158.59072570208	1
1	2085	159.205723951615	1
1	2088	159.218574127681	1
1	2104	160.489661528798	1
1	2115	162.444544998516	1
1	2126	163.289506658723	1
1	2137	164.101725762824	1
1	2146	164.306924759288	1
1	2159	167.314619104679	1
1	2170	167.790229647199	1
1	2181	168.616308251244	1
1	2192	170.748450830511	1
1	2203	173.088485126093	1
1	2214	174.088814107951	1
1	2225	174.865622968316	1
1	2236	175.82568772446	1
1	2242	175.953174580418	1
1	2257	177.062638938043	1
1	2268	178.026851865738	1
1	2271	178.103067679395	1
1	2287	178.774912063485	1
1	2298	179.669044184116	1
1	2301	179.676766888843	1
1	2317	180.475063562972	1
1	2328	181.742102665618	1
1	2337	182.075038570093	1
1	2345	182.185073992411	1
1	2354	182.341497885991	1
1	2370	182.960769624078	1
1	2379	183.25986806256	1
1	2392	184.191360189541	1
1	2395	184.192289429402	1
1	2411	185.41571776198	1
1	2420	185.658735009925	1
1	2433	188.062676951995	1
1	2444	189.051515243984	1
1	2450	189.164033988484	1
1	2459	189.350087191814	1
1	2471	189.550446583859	1
1	2485	191.161534852817	1
1	2494	191.548037929519	1
1	2507	193.199050104431	1
1	2518	193.635079218882	1
1	2529	194.67877738825	1
1	2540	195.436647114943	1
1	2551	196.092024422169	1
2	5	1.705978513779	1
2	16	3.133770692803	1
2	25	3.301310290764	1
2	39	4.061982484723	1
2	44	4.161982484723	1
2	49	4.261982484723	1
2	62	4.590880715754	1
2	74	6.041929032776	1
2	83	6.315745291345	1
2	96	8.53629798228	1
2	109	9.178067594149	1
2	112	9.278067594149	1
2	124	9.509938300807	1
2	136	10.978438981365	1
2	147	11.287063270937	1
2	158	12.368856754268	1
2	167	12.469575149015	1
2	177	12.672211188515	1
2	187	12.916626499502	1
2	199	14.666849339626	1
2	212	16.788902195025	1
2	215	16.888902195025	1
2	225	17.077698145022	1
2	239	17.670309466339	1
2	250	18.745598561612	1
2	261	19.425999186667	1
2	272	21.132621625805	1
2	283	24.671478271256	1
2	294	26.070133720731	1
2	305	26.536662648391	1
2	314	26.73761923806	1
2	327	28.261690345905	1
2	336	28.417251760721	1
2	350	29.457559992154	1
2	353	29.557559992154	1
2	369	30.764786980147	1
2	374	30.864786980147	1
2	379	30.964786980147	1
2	390	31.094271352129	1
2	402	31.478495852939	1
2	414	37.030399494772	1
2	425	38.504331874304	1
2	436	38.9008305636	1
2	445	39.155799146062	1
2	460	40.370657205015	1
2	463	40.470657205015	1
2	477	40.993634431057	1
2	488	43.795949203574	1
2	499	44.401802893314	1
2	508	44.673592030696	1
2	521	47.139544718979	1
2	532	47.359518963021	1
2	537	47.459518963021	1
2	551	48.010057975826	1
2	562	48.541871252279	1
2	573	48.903075431287	1
2	582	49.03281345747	1
2	594	49.425995808839	1
2	605	50.082999534142	1
2	616	51.190644513548	1
2	627	51.492603166449	1
2	638	51.859442872185	1
2	649	52.515336075107	1
2	660	53.279975131788	1
2	671	54.211149907646	1
2	682	55.673872537167	1
2	693	56.058985291188	1
2	704	57.713477975369	1
2	715	58.542703526876	1
2	726	59.298039680237	1
2	737	60.172901462541	1
2	748	61.662590417237	1
2	759	62.125581872034	1
2	770	63.134279821921	1
2	781	63.573087506021	1
2	792	63.908476674825	1
2	803	64.329214455979	1
2	812	64.451206726006	1
2	824	64.89422253215	1
2	837	66.471601366936	1
2	840	66.571601366936	1
2	856	67.469317652778	1
2	859	67.569317652778	1
2	875	68.641610031612	1
2	878	68.741610031612	1
2	892	69.466542823329	1
2	903	70.477760887292	1
2	914	70.630016464039	1
2	917	70.730016464039	1
2	932	71.216796014466	1
2	943	71.805108667455	1
2	954	72.915715677817	1
2	963	73.036666097793	1
2	977	74.333356531287	1
2	980	74.433356531287	1
2	990	74.613228984383	1
2	1004	75.480427892382	1
2	1013	75.616878409647	1
2	1027	76.118877579488	1
2	1030	76.218877579488	1
2	1044	79.286806728241	1
2	1055	79.639996418576	1
2	1066	79.980105456222	1
2	1075	80.18555952709	1
2	1086	80.370384267542	1
2	1098	81.606682795929	1
2	1109	82.586018209089	1
2	1120	83.115638689195	1
2	1131	83.483242348136	1
2	1142	85.694054125707	1
2	1153	86.947116462229	1
2	1164	87.298178495204	1
2	1177	88.632044165421	1
2	1180	88.732044165421	1
2	1194	89.225409793564	1
2	1205	90.955348996201	1
2	1214	91.221489913547	1
2	1229	92.664928381921	1
2	1232	92.764928381921	1
2	1242	92.893760075156	1
2	1254	93.288290024913	1
2	1269	93.603408441058	1
2	1272	93.703408441058	1
2	1286	94.519673100442	1
2	1297	95.624842596072	1
2	1308	96.282856408328	1
2	1319	96.805740559572	1
2	1330	98.860325868012	1
2	1341	99.485079299679	1
2	1350	99.765456842976	1
2	1363	100.746199975422	1
2	1374	101.520055713098	1
2	1385	101.990862405198	1
2	1394	102.153954587191	1
2	1406	102.940214173705	1
2	1417	103.861037094871	1
2	1428	105.336989254506	1
2	1439	106.019213051779	1
2	1450	106.530271387472	1
2	1461	106.867863593709	1
2	1472	108.728315777992	1
2	1483	109.269878647502	1
2	1494	109.481506306458	1
2	1501	109.581506306458	1
2	1506	109.681506306458	1
2	1523	110.440916730603	1
2	1526	110.540916730603	1
2	1540	111.718994873637	1
2	1551	113.844268257669	1
2	1562	116.673899669686	1
2	1573	117.5342340975	1
2	1584	122.077208612186	1
2	1593	122.288141493096	1
2	1606	122.656980689563	1
2	1617	123.331101572473	1
2	1628	124.120281772688	1
2	1639	126.275690337135	1
2	1650	127.29103078061	1
2	1661	129.063096608465	1
2	1670	129.288728469739	1
2	1681	129.404751989616	1
2	1689	129.541181497354	1
2	1703	129.848803506029	1
2	1706	129.948803506029	1
2	1719	130.192519923608	1
2	1731	132.578335043462	1
2	1742	133.293942342154	1
2	1751	133.427835038575	1
2	1763	134.584101361419	1
2	1774	135.401036759865	1
2	1785	135.741461961041	1
2	1796	136.137549263753	1
2	1807	136.933248497043	1
2	1818	137.838070243441	1
2	1829	138.454320111175	1
2	1838	138.739665503322	1
2	1851	140.884420194879	1
2	1862	141.426780457373	1
2	1875	141.61790574906	1
2	1878	141.71790574906	1
2	1884	141.81790574906	1
2	1901	142.552971472344	1
2	1904	142.652971472344	1
2	1918	143.606056535396	1
2	1929	144.069799628708	1
2	1940	146.782184579926	1
2	1953	147.369521205809	1
2	1956	147.469521205809	1
2	1970	148.193097658624	1
2	1981	149.589805213289	1
2	1992	151.394678151354	1
2	2001	151.50434203008	1
2	2011	151.694779354613	1
2	2023	153.260854734752	1
2	2034	153.725601053939	1
2	2043	153.913861494413	1
2	2055	156.202345759064	1
2	2066	158.307099802103	1
2	2077	158.69082570208	1
2	2090	159.305823951615	1
2	2093	159.405823951615	1
2	2107	160.589761528798	1
2	2118	162.544644998516	1
2	2129	163.389606658723	1
2	2140	164.201825762824	1
2	2149	164.407024759288	1
2	2162	167.414719104679	1
2	2173	167.890329647199	1
2	2184	168.716408251244	1
2	2195	170.848550830511	1
2	2206	173.188585126093	1
2	2217	174.188914107951	1
2	2228	174.965722968316	1
2	2239	175.92578772446	1
2	2248	176.053274580418	1
2	2260	177.162738938043	1
2	2273	178.126951865738	1
2	2276	178.226951865738	1
2	2290	178.875012063485	1
2	2303	179.769144184116	1
2	2306	179.869144184116	1
2	2320	180.575163562972	1
2	2331	181.842202665618	1
2	2342	182.175138570093	1
2	2351	182.285173992411	1
2	2359	182.441597885991	1
2	2373	183.060869624078	1
2	2382	183.35996806256	1
2	2397	184.291460189541	1
2	2400	184.391460189541	1
2	2414	185.51581776198	1
2	2423	185.758835009925	1
2	2436	188.162776951995	1
2	2447	189.151615243984	1
2	2456	189.264133988484	1
2	2464	189.450187191814	1
2	2474	189.650546583859	1
2	2488	191.261634852817	1
2	2499	191.648137929519	1
2	2510	193.299150104431	1
2	2521	193.735179218882	1
2	2532	194.77887738825	1
2	2543	195.536747114943	1
2	2554	196.192124422169	1
3	8	1.806078513779	1
3	22	3.233870692803	1
3	28	3.401410290764	1
3	46	4.162082484723	1
3	51	4.262082484723	1
3	55	4.362082484723	1
3	65	4.690980715754	1
3	77	6.142029032776	1
3	88	6.415845291345	1
3	99	8.63639798228	1
3	114	9.278167594149	1
3	117	9.378167594149	1
3	127	9.610038300807	1
3	139	11.078538981365	1
3	150	11.387163270937	1
3	164	12.468956754268	1
3	170	12.569675149015	1
3	180	12.772311188515	1
3	190	13.016726499502	1
3	202	14.766949339626	1
3	217	16.889002195025	1
3	223	16.989002195025	1
3	230	17.177798145022	1
3	242	17.770409466339	1
3	253	18.845698561612	1
3	264	19.526099186667	1
3	275	21.232721625805	1
3	286	24.771578271256	1
3	297	26.170233720731	1
3	308	26.636762648391	1
3	319	26.83771923806	1
3	333	28.361790345905	1
3	339	28.517351760721	1
3	355	29.557659992154	1
3	358	29.657659992154	1
3	376	30.864886980147	1
3	381	30.964886980147	1
3	388	31.064886980147	1
3	393	31.194371352129	2
3	405	31.578595852939	1
3	417	37.130499494772	1
3	428	38.604431874304	1
3	439	39.0009305636	1
3	450	39.255899146062	1
3	465	40.470757205015	1
3	468	40.570757205015	1
3	480	41.093734431057	1
3	491	43.896049203574	1
3	502	44.501902893314	1
3	513	44.773692030696	1
3	524	47.239644718979	1
3	539	47.459618963021	1
3	542	47.559618963021	1
3	554	48.110157975826	1
3	565	48.641971252279	1
3	579	49.003175431287	1
3	585	49.13291345747	1
3	597	49.526095808839	1
3	608	50.183099534142	1
3	619	51.290744513548	1
3	630	51.592703166449	1
3	641	51.959542872185	1
3	652	52.615436075107	1
3	663	53.380075131788	1
3	674	54.311249907646	1
3	685	55.773972537167	1
3	696	56.159085291188	1
3	707	57.813577975369	1
3	718	58.642803526876	1
3	729	59.398139680237	1
3	740	60.273001462541	1
3	751	61.762690417237	1
3	762	62.225681872034	1
3	773	63.234379821921	1
3	784	63.673187506021	1
3	795	64.008576674825	1
3	809	64.429314455979	1
3	815	64.551306726006	1
3	827	64.99432253215	1
3	842	66.571701366936	1
3	845	66.671701366936	1
3	861	67.569417652778	1
3	864	67.669417652778	1
3	880	68.741710031612	1
3	883	68.841710031612	1
3	895	69.566642823329	1
3	911	70.577860887292	1
3	919	70.730116464039	1
3	923	70.830116464039	1
3	935	71.316896014466	1
3	946	71.905208667455	1
3	960	73.015815677817	1
3	966	73.136766097793	1
3	982	74.433456531287	1
3	988	74.533456531287	1
3	995	74.713328984383	1
3	1010	75.580527892382	1
3	1016	75.716978409647	1
3	1032	76.218977579488	1
3	1035	76.318977579488	1
3	1047	79.386906728241	1
3	1058	79.740096418576	1
3	1069	80.080205456222	1
3	1083	80.28565952709	1
3	1089	80.470484267542	1
3	1101	81.706782795929	1
3	1112	82.686118209089	1
3	1123	83.215738689195	1
3	1134	83.583342348136	1
3	1145	85.794154125707	1
3	1156	87.047216462229	1
3	1167	87.398278495204	1
3	1182	88.732144165421	1
3	1185	88.832144165421	1
3	1197	89.325509793564	1
3	1208	91.055448996201	1
3	1219	91.321589913547	1
3	1234	92.765028381921	1
3	1240	92.865028381921	1
3	1247	92.993860075156	1
3	1259	93.388390024913	1
3	1274	93.703508441058	1
3	1277	93.803508441058	1
3	1289	94.619773100442	1
3	1300	95.724942596072	1
3	1311	96.382956408328	1
3	1322	96.905840559572	1
3	1333	98.960425868012	1
3	1344	99.585179299679	1
3	1355	99.865556842976	1
3	1366	100.846299975422	1
3	1377	101.620155713098	1
3	1391	102.090962405198	1
3	1397	102.254054587191	1
3	1409	103.040314173705	1
3	1420	103.961137094871	1
3	1431	105.437089254506	1
3	1442	106.119313051779	1
3	1453	106.630371387472	1
3	1464	106.967963593709	1
3	1475	108.828415777992	1
3	1486	109.369978647502	1
3	1503	109.581606306458	1
3	1508	109.681606306458	1
3	1512	109.781606306458	1
3	1528	110.541016730603	1
3	1531	110.641016730603	1
3	1543	111.819094873637	1
3	1554	113.944368257669	1
3	1565	116.773999669686	1
3	1576	117.6343340975	1
3	1587	122.177308612186	1
3	1598	122.388241493096	1
3	1609	122.757080689563	1
3	1620	123.431201572473	1
3	1631	124.220381772688	1
3	1642	126.375790337135	1
3	1653	127.39113078061	1
3	1664	129.163196608465	1
3	1678	129.388828469739	1
3	1687	129.504851989616	1
3	1694	129.641281497354	1
3	1708	129.948903506029	1
3	1712	130.048903506029	1
3	1722	130.292619923608	1
3	1734	132.678435043462	1
3	1748	133.394042342154	1
3	1754	133.527935038575	1
3	1766	134.684201361419	1
3	1777	135.501136759865	1
3	1788	135.841561961041	1
3	1799	136.237649263753	1
3	1810	137.033348497043	1
3	1821	137.938170243441	1
3	1832	138.554420111175	1
3	1843	138.839765503322	1
3	1854	140.984520194879	1
3	1868	141.526880457373	1
3	1880	141.71800574906	1
3	1886	141.81800574906	1
3	1888	141.91800574906	2
3	1906	142.653071472344	1
3	1909	142.753071472344	1
3	1921	143.706156535396	1
3	1932	144.169899628708	1
3	1943	146.882284579926	1
3	1958	147.469621205809	1
3	1961	147.569621205809	1
3	1973	148.293197658624	1
3	1984	149.689905213289	1
3	1998	151.494778151354	1
3	2007	151.60444203008	1
3	2014	151.794879354613	1
3	2026	153.360954734752	1
3	2040	153.825701053939	1
3	2046	154.013961494413	1
3	2058	156.302445759064	1
3	2069	158.407199802103	1
3	2080	158.79092570208	1
3	2095	159.405923951615	1
3	2098	159.505923951615	1
3	2110	160.689861528798	1
3	2121	162.644744998516	1
3	2132	163.489706658723	1
3	2143	164.301925762824	1
3	2154	164.507124759288	1
3	2165	167.514819104679	1
3	2176	167.990429647199	1
3	2187	168.816508251244	1
3	2198	170.948650830511	1
3	2209	173.288685126093	1
3	2220	174.289014107951	1
3	2231	175.065822968316	1
3	2245	176.02588772446	1
3	2251	176.153374580418	1
3	2263	177.262838938043	1
3	2278	178.227051865738	1
3	2281	178.327051865738	1
3	2293	178.975112063485	1
3	2308	179.869244184116	1
3	2311	179.969244184116	1
3	2323	180.675263562972	1
3	2334	181.942302665618	1
3	2348	182.275238570093	1
3	2357	182.385273992411	1
3	2364	182.541697885991	1
3	2376	183.160969624078	1
3	2387	183.46006806256	1
3	2402	184.391560189541	1
3	2405	184.491560189541	1
3	2417	185.61591776198	1
3	2428	185.858935009925	1
3	2439	188.262876951995	1
3	2453	189.251715243984	1
3	2462	189.364233988484	1
3	2469	189.550287191814	1
3	2479	189.750646583859	1
3	2491	191.361734852817	1
3	2502	191.748237929519	1
3	2513	193.399250104431	1
3	2524	193.835279218882	1
3	2535	194.87897738825	1
3	2546	195.636847114943	1
3	2557	196.292224422169	1
4	10	2.006078513779	0.4002
4	29	3.433870692803	0.4002
4	31	3.633870692803	0.432660402039
4	53	4.362082484723	0.4002
4	59	4.562082484723	0.552687774472
4	66	4.762082484723	0.652691515219
4	68	4.962082484723	0.471301768969
4	85	6.342029032776	0.4002
4	90	6.615845291345	0.4002
4	101	8.83639798228	0.4002
4	121	9.478167594149	0.4002
4	128	9.678167594149	0.578720805923
4	130	9.878167594149	0.468329293342
4	144	11.278538981365	0.4002
4	152	11.587163270937	0.4002
4	174	12.668956754268	0.4002
4	184	12.868956754268	0.499481605253
4	191	13.068956754268	0.496845565753
4	193	13.268956754268	0.452430254766
4	204	14.966949339626	0.4002
4	227	17.089002195025	0.4002
4	231	17.289002195025	0.572120049441
4	233	17.489002195025	0.511404050003
4	244	17.970409466339	0.4002
4	255	19.045698561612	0.4002
4	266	19.726099186667	0.4002
4	277	21.432721625805	0.4002
4	288	24.971578271256	0.4002
4	299	26.370233720731	0.4002
4	316	26.836762648391	0.4002
4	321	27.03771923806	0.4002
4	340	28.561790345905	0.4002
4	342	28.761790345905	0.444638585184
4	359	29.757659992154	0.4002
4	361	29.957659992154	0.559542516008
4	386	31.064886980147	0.4002
4	394	31.264886980147	0.566012642886
4	399	31.464886980147	0.660632922196
4	406	31.664886980147	0.670715628018
4	408	31.864886980147	0.486491127208
4	419	37.330499494772	0.4002
4	433	38.804431874304	0.4002
4	447	39.2009305636	0.4002
4	452	39.455899146062	0.4002
4	469	40.670757205015	0.4002
4	471	40.870757205015	0.522459861055
4	482	41.293734431057	0.4002
4	493	44.096049203574	0.4002
4	510	44.701902893314	0.4002
4	515	44.973692030696	0.4002
4	534	47.439644718979	0.4002
4	543	47.659618963021	0.4002
4	545	47.859618963021	0.501674572389
4	556	48.310157975826	0.4002
4	570	48.841971252279	0.4002
4	586	49.203175431287	0.4002
4	591	49.403175431287	0.470461973817
4	599	49.726095808839	0.4002
4	610	50.383099534142	0.4002
4	624	51.490744513548	0.4002
4	635	51.792703166449	0.4002
4	643	52.159542872185	0.4002
4	654	52.815436075107	0.4002
4	665	53.580075131788	0.4002
4	676	54.511249907646	0.4002
4	690	55.973972537167	0.4002
4	698	56.359085291188	0.4002
4	709	58.013577975369	0.4002
4	720	58.842803526876	0.4002
4	731	59.598139680237	0.4002
4	742	60.473001462541	0.4002
4	753	61.962690417237	0.4002
4	764	62.425681872034	0.4002
4	775	63.434379821921	0.4002
4	789	63.873187506021	0.4002
4	797	64.208576674825	0.4002
4	816	64.629314455979	0.4002
4	821	64.829314455979	0.478207729973
4	829	65.19432253215	0.4002
4	846	66.771701366936	0.4002
4	848	66.971701366936	0.52963406758
4	865	67.769417652778	0.4002
4	867	67.969417652778	0.550466493323
4	884	68.941710031612	0.4002
4	886	69.141710031612	0.530866334136
4	897	69.766642823329	0.4002
4	920	70.777860887292	0.4002
4	924	70.977860887292	0.447944423253
4	929	71.177860887292	0.622790771707
4	937	71.516896014466	0.4002
4	948	72.105208667455	0.4002
4	967	73.215815677817	0.4002
4	969	73.415815677817	0.479249580024
4	992	74.633456531287	0.4002
4	996	74.833456531287	0.57364725825
4	998	75.033456531287	0.520327546904
4	1017	75.780527892382	0.4002
4	1019	75.980527892382	0.463749482735
4	1036	76.418977579488	0.4002
4	1038	76.618977579488	0.554548170857
4	1052	79.586906728241	0.4002
4	1063	79.940096418576	0.4002
4	1080	80.280205456222	0.4002
4	1090	80.48565952709	0.4002
4	1092	80.68565952709	0.415375259548
4	1103	81.906782795929	0.4002
4	1114	82.886118209089	0.4002
4	1128	83.415738689195	0.4002
4	1136	83.783342348136	0.4002
4	1147	85.994154125707	0.4002
4	1161	87.247216462229	0.4002
4	1169	87.598278495204	0.4002
4	1186	88.932144165421	0.4002
4	1191	89.132144165421	0.50558159534
4	1199	89.525509793564	0.4002
4	1216	91.255448996201	0.4002
4	1221	91.521589913547	0.4002
4	1244	92.965028381921	0.4002
4	1248	93.165028381921	0.579634442774
4	1256	93.365028381921	0.571368306765
4	1264	93.588390024913	0.4002
4	1278	93.903508441058	0.4002
4	1280	94.103508441058	0.51278392404
4	1291	94.819773100442	0.4002
4	1302	95.924942596072	0.4002
4	1313	96.582956408328	0.4002
4	1324	97.105840559572	0.4002
4	1335	99.160425868012	0.4002
4	1352	99.785179299679	0.4002
4	1357	100.065556842976	0.4002
4	1368	101.046299975422	0.4002
4	1379	101.820155713098	0.4002
4	1398	102.290962405198	0.4002
4	1400	102.490962405198	0.437107818007
4	1411	103.240314173705	0.4002
4	1422	104.161137094871	0.4002
4	1433	105.637089254506	0.4002
4	1444	106.319313051779	0.4002
4	1458	106.830371387472	0.4002
4	1466	107.167963593709	0.4002
4	1477	109.028415777992	0.4002
4	1498	109.569978647502	0.4002
4	1510	109.781606306458	0.4002
4	1513	109.981606306458	0.543446571627
4	1515	110.181606306458	0.647421974153
4	1532	110.741016730603	0.4002
4	1534	110.941016730603	0.589929595947
4	1545	112.019094873637	0.4002