version 3
run FeedbackVersion-12-20240511-20:45:11-11876
attr configname FeedbackVersion
attr datetime 20240511-20:45:11
attr datetimef 20240511-204511
attr experiment FeedbackVersion
attr inifile omnetpp.ini
attr iterationvars $genInterval=0.7
attr iterationvarsd genInterval=0.7
attr iterationvarsf genInterval=0.7-
attr measurement $genInterval=0.7
attr network NetworkFV
attr processid 11876
attr repetition 0
attr replication #0
attr resultdir results
attr runnumber 12
attr seedset 12
itervar genInterval 0.7
config network NetworkFV
config sim-time-limit 200s
config NetworkFV.nodeTx.gen.generationInterval exponential(0.7)
config NetworkFV.nodeTx.gen.packetByteSize 12500
config NetworkFV.queueOne.bufferSize 200
config NetworkFV.nodeRx.queue.bufferSize 200
config NetworkFV.nodeTx.queue.bufferSize 2000000
config NetworkFV.queueZero.bufferSize 200

vector 0 NetworkFV.nodeRx.queue PacketsLost ETV
vector 1 NetworkFV.nodeRx.queue PacketsAsked ETV
vector 2 NetworkFV.queueOne bufferSize ETV
vector 3 NetworkFV.nodeTx.gen packetGen ETV
vector 4 NetworkFV.nodeTx.queue BufferSize ETV
vector 5 NetworkFV.nodeTx.queue PacketsSent ETV
vector 6 NetworkFV.queueZero bufferSize ETV
vector 7 NetworkFV.nodeRx.queue BufferSize ETV
vector 8 NetworkFV.nodeRx.sink Delay ETV
vector 9 NetworkFV.nodeRx.sink packetUsed ETV
0	1	0	1
0	9	0.2	1
0	22	0.6002	1
0	36	1.0006	1
0	37	1.2008	1
0	38	1.401	1
0	45	1.6012	1
0	52	2.0016	1
0	53	2.2018	1
0	58	2.402	1
0	59	2.6022	1
0	60	2.8024	1
0	64	3.0026	1
0	80	3.2028	1
0	96	3.6032	1
0	100	3.8034	1
0	121	4.404	1
0	122	4.6042	1
0	131	4.8044	1
0	157	5.405	1
0	160	5.6052	1
0	161	5.8054	1
0	162	6.0056	1
0	163	6.2058	1
0	164	6.406	1
0	169	6.6062	1
0	178	6.8064	1
0	190	7.0066	1
0	193	7.2068	1
0	196	7.407	1
0	197	7.6072	1
0	198	7.8074	1
0	199	8.0076	1
0	204	8.2078	1
0	208	8.408	1
0	222	8.6082	1
0	239	8.8084	1
0	242	9.0086	1
0	243	9.2088	1
0	244	9.409	1
0	245	9.6092	1
0	246	9.8094	1
0	251	10.0096	1
0	256	10.2098	1
0	261	10.41	1
0	262	10.6102	1
0	263	10.8104	1
0	270	11.0106	1
0	281	11.411	1
0	282	11.6112	1
0	286	11.8114	1
0	338	12.8124	1
0	341	13.0126	1
0	342	13.2128	1
0	349	13.413	1
0	360	13.8134	1
0	369	14.0136	1
0	380	14.414	1
0	381	14.6142	1
0	382	14.8144	1
0	383	15.0146	1
0	384	15.2148	1
0	385	15.415	1
0	390	15.6152	1
0	395	15.8154	1
0	400	16.0156	1
0	401	16.2158	1
0	402	16.416	1
0	403	16.6162	1
0	407	16.8164	1
0	418	17.0166	1
0	421	17.2168	1
0	422	17.417	1
0	423	17.6172	1
0	424	17.8174	1
0	425	18.0176	1
0	430	18.2178	1
0	435	18.418	1
0	440	18.6182	1
0	444	18.8184	1
0	458	19.2188	1
0	465	19.419	1
0	472	19.8194	1
0	473	20.0196	1
0	474	20.2198	1
0	475	20.42	1
0	483	20.6202	1
0	494	20.8204	1
0	497	21.0206	1
0	498	21.2208	1
0	499	21.421	1
0	500	21.6212	1
0	501	21.8214	1
0	506	22.0216	1
0	511	22.2218	1
0	522	22.422	1
0	533	22.6222	1
0	541	22.8224	1
0	547	23.0226	1
0	564	23.423	1
0	565	23.6232	1
0	572	23.8234	1
0	587	24.2238	1
0	590	24.424	1
0	591	24.6242	1
0	592	24.8244	1
0	593	25.0246	1
0	594	25.2248	1
0	605	25.425	1
0	613	25.6252	1
0	619	25.8254	1
0	633	26.2258	1
0	634	26.426	1
0	638	26.6262	1
0	659	27.2268	1
0	660	27.427	1
0	664	27.6272	1
0	681	28.2278	1
0	682	28.428	1
0	683	28.6282	1
0	688	28.8284	1
0	689	29.0286	1
0	690	29.2288	1
0	691	29.429	1
0	692	29.6292	1
0	696	29.8294	1
1	1	0	2
1	27	0.731093549754	2
1	53	2.2018	1
1	69	3.120813832121	1
1	87	3.334730270298	2
1	111	4.032117625234	3
1	149	5.144597373242	5
1	164	6.406	2
1	185	7.001728759736	2
1	199	8.0076	1
1	213	8.542748339209	1
1	233	8.787872439362	1
1	246	9.8094	0
1	251	10.0096	0
1	256	10.2098	1
1	272	11.073722096546	2
1	299	12.079844024451	3
1	330	12.609733573313	4
1	369	14.0136	2
1	385	15.415	0
1	390	15.6152	0
1	395	15.8154	1
1	412	16.963799619049	1
1	425	18.0176	0
1	430	18.2178	0
1	435	18.418	1
1	449	18.9843019966	2
1	475	20.42	1
1	488	20.784981140058	1
1	501	21.8214	0
1	506	22.0216	0
1	511	22.2218	0
1	522	22.422	1
1	535	22.639554546887	1
1	555	23.155123212531	2
1	579	23.929352110879	3
1	594	25.2248	1
1	607	25.493976444625	1
1	624	25.959001489837	2
1	649	26.8661310797	4
1	683	28.6282	2
1	696	29.8294	0
2	2	0	1
2	29	0.731093549754	1
2	54	2.2018	1
2	71	3.120813832121	1
2	89	3.334730270298	1
2	112	4.032117625234	1
2	150	5.144597373242	1
2	165	6.406	1
2	186	7.001728759736	1
2	200	8.0076	1
2	215	8.542748339209	1
2	235	8.787872439362	1
2	247	9.8094	1
2	252	10.0096	1
2	257	10.2098	1
2	274	11.073722096546	1
2	300	12.079844024451	1
2	331	12.609733573313	1
2	370	14.0136	1
2	386	15.415	1
2	391	15.6152	1
2	396	15.8154	1
2	414	16.963799619049	1
2	426	18.0176	1
2	431	18.2178	1
2	436	18.418	1
2	451	18.9843019966	1
2	476	20.42	1
2	490	20.784981140058	1
2	502	21.8214	1
2	507	22.0216	1
2	512	22.2218	1
2	523	22.422	1
2	537	22.639554546887	1
2	557	23.155123212531	1
2	580	23.929352110879	1
2	595	25.2248	1
2	609	25.493976444625	1
2	626	25.959001489837	1
2	650	26.8661310797	1
2	684	28.6282	1
2	697	29.8294	1
3	6	0.117199895458	1
3	19	0.530893549754	1
3	39	1.473978900669	1
3	61	2.920613832121	1
3	75	3.134530270298	1
3	78	3.197810240629	1
3	97	3.731917625234	1
3	123	4.632056524653	1
3	126	4.642334079284	1
3	139	4.944397373242	1
3	170	6.701528759736	1
3	173	6.725716806711	1
3	205	8.342548339209	1
3	219	8.587672439362	1
3	223	8.611467322608	1
3	225	8.671757835436	1
3	264	10.873522096546	1
3	283	11.779644024451	1
3	290	11.882952244049	1
3	306	12.209533573313	1
3	321	12.443218355563	1
3	343	13.232121366815	1
3	363	13.884252220954	1
3	404	16.763599619049	1
3	441	18.7841019966	1
3	459	19.243913456782	1
3	480	20.584781140058	1
3	516	22.290373425872	1
3	519	22.291956682386	1
3	527	22.439354546887	1
3	544	22.954923212531	1
3	551	23.067019873484	1
3	566	23.629152110879	1
3	599	25.293776444625	1
3	616	25.758801489837	1
3	635	26.5659310797	1
3	661	27.589048498201	1
3	693	29.803601894636	1
3	704	29.926246815544	1
3	714	30.352476564743	1
3	722	31.364887327582	1
3	728	31.94458890321	1
3	731	31.959309464783	1
3	740	33.090358918404	1
3	743	33.192047062056	1
3	756	35.19952458751	1
3	760	35.286049566807	1
3	764	35.462993770127	1
3	768	35.722634449706	1
3	775	36.572308716305	1
3	782	37.351460729551	1
3	787	37.836586883444	1
3	793	38.282627802587	1
3	797	38.441160301623	1
3	805	39.626774527304	1
3	812	40.321549982066	1
3	816	40.560885924991	1
3	820	40.669969688128	1
3	827	41.594654678438	1
3	830	41.632738179878	1
3	838	42.481664870922	1
3	841	42.607361760606	1
3	846	42.885161293147	1
3	856	44.293286699865	1
3	860	44.578493545393	1
3	863	44.605196532526	1
3	880	47.278745908157	1
3	884	47.450555575298	1
3	890	48.136356424037	1
3	908	51.153080092093	1
3	922	53.254495843836	1
3	925	53.387327687329	1
3	933	54.408459923959	1
3	937	54.499220197388	1
3	946	55.719335718755	1
3	952	56.271269819395	1
3	956	56.636637966515	1
3	961	57.020031299442	1
3	966	57.440184431964	1
3	973	58.096190803745	1
3	977	58.454506021876	1
3	986	59.545050289312	1
3	1008	63.273486262818	1
3	1020	65.103114510376	1
3	1023	65.239953891612	1
3	1027	65.458887048268	1
3	1042	67.759088359013	1
3	1046	68.013008078122	1
3	1051	68.393412837997	1
3	1059	69.329834371883	1
3	1064	69.716051443376	1
3	1076	71.566781436415	1
3	1081	72.002205556605	1
3	1084	72.016756395505	1
3	1089	72.344330316533	1
3	1101	74.27020311746	1
3	1107	74.708710204509	1
3	1113	75.300712615242	1
3	1116	75.325773709263	1
3	1119	75.441451285919	1
3	1123	75.503076928407	1
3	1127	75.717552011514	1
3	1134	76.640651172678	1
3	1143	77.831686116566	1
3	1150	78.539491803322	1
3	1157	79.445377080867	1
3	1160	79.465190311924	1
3	1163	79.475413638097	1
3	1168	79.725256179063	1
3	1173	80.13514006074	1
3	1177	80.309828513834	1
3	1183	80.898536193865	1
3	1186	80.938150248217	1
3	1191	81.424329481769	1
3	1197	81.942857837193	1
3	1206	83.086431751903	1
3	1210	83.463372978766	1
3	1215	83.832978403551	1
3	1218	83.867572438846	1
3	1222	83.902438439938	1
3	1228	84.497142804921	1
3	1234	85.090081972998	1
3	1242	86.229106290534	1
3	1246	86.443756765714	1
3	1250	86.528168997344	1
3	1257	87.356007980889	1
3	1261	87.583163712521	1
3	1272	89.267471912815	1
3	1279	89.985898368341	1
3	1285	90.582223070152	1
3	1290	91.05733146368	1
3	1297	91.765772701834	1
3	1302	92.260214942173	1
3	1308	92.86874613474	1
3	1314	93.301945931851	1
3	1318	93.565537508548	1
3	1329	95.141483190534	1
3	1334	95.664565415012	1
3	1341	96.316153620158	1
3	1347	97.042559377763	1
3	1353	97.689859964643	1
3	1357	97.8757474911	1
3	1362	98.286477068932	1
3	1366	98.330635469677	1
3	1371	98.788446979777	1
3	1377	99.415720186445	1
3	1388	100.951002297244	1
3	1394	101.513056222036	1
3	1397	101.676734431498	1
3	1407	102.995518628899	1
3	1420	105.020507378681	1
3	1428	106.02399472738	1
3	1431	106.077410956877	1
3	1436	106.405284385065	1
3	1442	107.038255684103	1
3	1448	107.586888058026	1
3	1451	107.609040664771	1
3	1465	109.771934062783	1
3	1472	110.538009517564	1
3	1475	110.635007012486	1
3	1482	111.345097503885	1
3	1485	111.35779514603	1
3	1495	112.746509759112	1
3	1501	113.32556431347	1
3	1513	115.314324054479	1
3	1518	115.615168482051	1
3	1523	116.028110819298	1
3	1530	116.751302041055	1
3	1537	117.527276013389	1
3	1541	117.758967559172	1
3	1553	119.56593548092	1
3	1558	119.953617304666	1
3	1564	120.629864898496	1
3	1569	120.963869784222	1
3	1573	121.236500378074	1
3	1577	121.333495032915	1
3	1581	121.602919887359	1
3	1587	122.250169701495	1
3	1591	122.491350564744	1
3	1595	122.543660533749	1
3	1609	124.753077613662	1
3	1613	125.067526359798	1
3	1618	125.43209044588	1
3	1623	125.856568525729	1
3	1636	127.906950797452	1
3	1648	129.537970784843	1
3	1657	130.900341669203	1
3	1661	131.120134812604	1
3	1669	131.937545692388	1
3	1672	132.00450166724	1
3	1675	132.006807033963	1
3	1682	132.839566155047	1
3	1693	134.452100563491	1
3	1700	135.269244381013	1
3	1712	137.036073059519	1
3	1715	137.070194702327	1
3	1718	137.074343523577	1
3	1723	137.342879305875	1
3	1729	138.063748160409	1
3	1741	139.788086394139	1
3	1745	140.128626507497	1
3	1756	141.585616275084	1
3	1762	142.219607485798	1
3	1767	142.741607615191	1
3	1774	143.402183660761	1
3	1778	143.590772247083	1
3	1784	144.231509661724	1
3	1787	144.330519191663	1
3	1792	144.592584710208	1
3	1798	145.146982264793	1
3	1801	145.197686669576	1
3	1811	146.64612331045	1
3	1820	147.775304386368	1
3	1826	148.50664474878	1
3	1838	150.2034502352	1
3	1843	150.597833242239	1
3	1846	150.749389467793	1
3	1851	151.117940465321	1
3	1855	151.283484715554	1
3	1864	152.363642131781	1
3	1868	152.695383698079	1
3	1872	152.908989677859	1
3	1877	153.269897266967	1
3	1881	153.500350722402	1
3	1892	155.015409415644	1
3	1895	155.031731837958	1
3	1899	155.189819917962	1
3	1906	155.971127914715	1
3	1910	156.351248945831	1
3	1914	156.459418919944	1
3	1921	157.190224610122	1
3	1924	157.250384991917	1
3	1929	157.752080929336	1
3	1936	158.53055045079	1
3	1941	158.814900330451	1
3	1948	159.753458239315	1
3	1957	160.80850716327	1
3	1963	161.451591840287	1
3	1966	161.553462106677	1
3	1970	161.591610261176	1
3	1973	161.740594992928	1
3	1978	161.975686508015	1
3	1982	162.336291648314	1
3	1990	163.301265480134	1
3	1999	164.3832787002	1
3	2003	164.758488846654	1
3	2007	164.963429669238	1
3	2011	165.066371710651	1
3	2014	165.147540774739	1
3	2020	165.633078761202	1
3	2032	167.501353813449	1
3	2036	167.618776585233	1
3	2039	167.713359272773	1
3	2043	167.7689302673	1
3	2049	168.419148475426	1
3	2061	170.208034502364	1
3	2065	170.447897947319	1
3	2069	170.579829983746	1
3	2075	171.269271162264	1
3	2080	171.767287274168	1
3	2087	172.521375950027	1
3	2091	172.673343111242	1
3	2094	172.722433194163	1
3	2100	173.265336455788	1
3	2104	173.572770787868	1
3	2113	174.7010176573	1
3	2118	174.986305043784	1
3	2121	175.130213927518	1
3	2125	175.267004107646	1
3	2129	175.530169695637	1
3	2132	175.535794574728	1
3	2136	175.595677323178	1
3	2139	175.603022609754	1
3	2145	176.267742015229	1
3	2151	176.904712505664	1
3	2156	177.187410927135	1
3	2159	177.249316285101	1
3	2170	178.882039640808	1
3	2174	179.147558353654	1
3	2180	179.725963303318	1
3	2195	182.149035225242	1
3	2200	182.522549650547	1
3	2210	183.970265712964	1
3	2214	184.169290889738	1
3	2226	185.876848034519	1
3	2236	187.215995950799	1
3	2239	187.346340857867	1
3	2245	187.942724132123	1
3	2250	188.209409568978	1
3	2256	188.930292390601	1
3	2260	189.124039797189	1
3	2272	190.832094575076	1
3	2277	191.304747736143	1
3	2283	191.946532433169	1
3	2289	192.496129299851	1
3	2295	193.125146925206	1
3	2300	193.489117416193	1
3	2307	194.208530211289	1
3	2314	195.158001326428	1
3	2320	195.613542560733	1
3	2326	196.335994961167	1
3	2335	197.515638877193	1
3	2342	198.269455013161	1
3	2347	198.761453315727	1
3	2351	198.874577544343	1
3	2354	198.874873170034	1
3	2362	199.835778617737	1
3	2365	199.856637011309	1
4	7	0.117199895458	1
4	20	0.530893549754	1
4	40	1.473978900669	1
4	62	2.920613832121	1
4	76	3.134530270298	1
4	79	3.197810240629	1
4	98	3.731917625234	2
4	124	4.632056524653	1
4	127	4.642334079284	1
4	140	4.944397373242	1
4	171	6.701528759736	1
4	174	6.725716806711	1
4	206	8.342548339209	1
4	220	8.587672439362	1
4	224	8.611467322608	1
4	226	8.671757835436	2
4	265	10.873522096546	3
4	284	11.779644024451	3
4	291	11.882952244049	2
4	307	12.209533573313	3
4	322	12.443218355563	1
4	344	13.232121366815	2
4	364	13.884252220954	1
4	405	16.763599619049	1
4	442	18.7841019966	1
4	460	19.243913456782	1
4	481	20.584781140058	1
4	517	22.290373425872	1
4	520	22.291956682386	2
4	528	22.439354546887	3
4	545	22.954923212531	3
4	552	23.067019873484	3
4	567	23.629152110879	4
4	600	25.293776444625	3
4	617	25.758801489837	3
4	636	26.5659310797	3
4	662	27.589048498201	2
4	694	29.803601894636	1
4	705	29.926246815544	1
4	715	30.352476564743	2
4	723	31.364887327582	3
4	729	31.94458890321	4
4	732	31.959309464783	5
4	741	33.090358918404	6
4	744	33.192047062056	7
4	757	35.19952458751	8
4	761	35.286049566807	9
4	765	35.462993770127	10
4	769	35.722634449706	11
4	776	36.572308716305	12
4	783	37.351460729551	13
4	788	37.836586883444	14
4	794	38.282627802587	15
4	798	38.441160301623	16
4	806	39.626774527304	17
4	813	40.321549982066	18
4	817	40.560885924991	19
4	821	40.669969688128	20
4	828	41.594654678438	21
4	831	41.632738179878	22
4	839	42.481664870922	23
4	842	42.607361760606	24
4	847	42.885161293147	25
4	857	44.293286699865	26
4	861	44.578493545393	27
4	864	44.605196532526	28
4	881	47.278745908157	29
4	885	47.450555575298	30
4	891	48.136356424037	31
4	909	51.153080092093	32
4	923	53.254495843836	33
4	926	53.387327687329	34
4	934	54.408459923959	35
4	938	54.499220197388	36
4	947	55.719335718755	37
4	953	56.271269819395	38
4	957	56.636637966515	39
4	962	57.020031299442	40
4	967	57.440184431964	41
4	974	58.096190803745	42
4	978	58.454506021876	43
4	987	59.545050289312	44
4	1009	63.273486262818	45
4	1021	65.103114510376	46
4	1024	65.239953891612	47
4	1028	65.458887048268	48
4	1043	67.759088359013	49
4	1047	68.013008078122	50
4	1052	68.393412837997	51
4	1060	69.329834371883	52
4	1065	69.716051443376	53
4	1077	71.566781436415	54
4	1082	72.002205556605	55
4	1085	72.016756395505	56
4	1090	72.344330316533	57
4	1102	74.27020311746	58
4	1108	74.708710204509	59
4	1114	75.300712615242	60
4	1117	75.325773709263	61
4	1120	75.441451285919	62
4	1124	75.503076928407	63
4	1128	75.717552011514	64
4	1135	76.640651172678	65
4	1144	77.831686116566	66
4	1151	78.539491803322	67
4	1158	79.445377080867	68
4	1161	79.465190311924	69
4	1164	79.475413638097	70
4	1169	79.725256179063	71
4	1174	80.13514006074	72
4	1178	80.309828513834	73
4	1184	80.898536193865	74
4	1187	80.938150248217	75
4	1192	81.424329481769	76
4	1198	81.942857837193	77
4	1207	83.086431751903	78
4	1211	83.463372978766	79
4	1216	83.832978403551	80
4	1219	83.867572438846	81
4	1223	83.902438439938	82
4	1229	84.497142804921	83
4	1235	85.090081972998	84
4	1243	86.229106290534	85
4	1247	86.443756765714	86
4	1251	86.528168997344	87
4	1258	87.356007980889	88
4	1262	87.583163712521	89
4	1273	89.267471912815	90
4	1280	89.985898368341	91
4	1286	90.582223070152	92
4	1291	91.05733146368	93
4	1298	91.765772701834	94
4	1303	92.260214942173	95
4	1309	92.86874613474	96
4	1315	93.301945931851	97
4	1319	93.565537508548	98
4	1330	95.141483190534	99
4	1335	95.664565415012	100
4	1342	96.316153620158	101
4	1348	97.042559377763	102
4	1354	97.689859964643	103
4	1358	97.8757474911	104
4	1363	98.286477068932	105
4	1367	98.330635469677	106
4	1372	98.788446979777	107
4	1378	99.415720186445	108
4	1389	100.951002297244	109
4	1395	101.513056222036	110
4	1398	101.676734431498	111
4	1408	102.995518628899	112
4	1421	105.020507378681	113
4	1429	106.02399472738	114
4	1432	106.077410956877	115
4	1437	106.405284385065	116
4	1443	107.038255684103	117
4	1449	107.586888058026	118
4	1452	107.609040664771	119
4	1466	109.771934062783	120
4	1473	110.538009517564	121
4	1476	110.635007012486	122
4	1483	111.345097503885	123
4	1486	111.35779514603	124
4	1496	112.746509759112	125
4	1502	113.32556431347	126
4	1514	115.314324054479	127
4	1519	115.615168482051	128
4	1524	116.028110819298	129
4	1531	116.751302041055	130
4	1538	117.527276013389	131
4	1542	117.758967559172	132
4	1554	119.56593548092	133
4	1559	119.953617304666	134
4	1565	120.629864898496	135
4	1570	120.963869784222	136
4	1574	121.236500378074	137
4	1578	121.333495032915	138
4	1582	121.602919887359	139
4	1588	122.250169701495	140
4	1592	122.491350564744	141
4	1596	122.543660533749	142
4	1610	124.753077613662	143
4	1614	125.067526359798	144
4	1619	125.43209044588	145
4	1624	125.856568525729	146
4	1637	127.906950797452	147
4	1649	129.537970784843	148
4	1658	130.900341669203	149
4	1662	131.120134812604	150
4	1670	131.937545692388	151
4	1673	132.00450166724	152
4	1676	132.006807033963	153
4	1683	132.839566155047	154
4	1694	134.452100563491	155
4	1701	135.269244381013	156
4	1713	137.036073059519	157
4	1716	137.070194702327	158
4	1719	137.074343523577	159
4	1724	137.342879305875	160
4	1730	138.063748160409	161
4	1742	139.788086394139	162
4	1746	140.128626507497	163
4	1757	141.585616275084	164
4	1763	142.219607485798	165
4	1768	142.741607615191	166
4	1775	143.402183660761	167
4	1779	143.590772247083	168
4	1785	144.231509661724	169
4	1788	144.330519191663	170
4	1793	144.592584710208	171
4	1799	145.146982264793	172
4	1802	145.197686669576	173
4	1812	146.64612331045	174
4	1821	147.775304386368	175
4	1827	148.50664474878	176
4	1839	150.2034502352	177
4	1844	150.597833242239	178
4	1847	150.749389467793	179
4	1852	151.117940465321	180
4	1856	151.283484715554	181
4	1865	152.363642131781	182
4	1869	152.695383698079	183
4	1873	152.908989677859	184
4	1878	153.269897266967	185
4	1882	153.500350722402	186
4	1893	155.015409415644	187
4	1896	155.031731837958	188
4	1900	155.189819917962	189
4	1907	155.971127914715	190
4	1911	156.351248945831	191
4	1915	156.459418919944	192
4	1922	157.190224610122	193
4	1925	157.250384991917	194
4	1930	157.752080929336	195
4	1937	158.53055045079	196
4	1942	158.814900330451	197
4	1949	159.753458239315	198
4	1958	160.80850716327	199
4	1964	161.451591840287	200
4	1967	161.553462106677	201
4	1971	161.591610261176	202
4	1974	161.740594992928	203
4	1979	161.975686508015	204
4	1983	162.336291648314	205
4	1991	163.301265480134	206
4	2000	164.3832787002	207
4	2004	164.758488846654	208
4	2008	164.963429669238	209
4	2012	165.066371710651	210
4	2015	165.147540774739	211
4	2021	165.633078761202	212
4	2033	167.501353813449	213
4	2037	167.618776585233	214
4	2040	167.713359272773	215
4	2044	167.7689302673	216
4	2050	168.419148475426	217
4	2062	170.208034502364	218
4	2066	170.447897947319	219
4	2070	170.579829983746	220
4	2076	171.269271162264	221
4	2081	171.767287274168	222
4	2088	172.521375950027	223
4	2092	172.673343111242	224
4	2095	172.722433194163	225
4	2101	173.265336455788	226
4	2105	173.572770787868	227
4	2114	174.7010176573	228
4	2119	174.986305043784	229
4	2122	175.130213927518	230
4	2126	175.267004107646	231
4	2130	175.530169695637	232
4	2133	175.535794574728	233
4	2137	175.595677323178	234
4	2140	175.603022609754	235
4	2146	176.267742015229	236
4	2152	176.904712505664	237
4	2157	177.187410927135	238
4	2160	177.249316285101	239
4	2171	178.882039640808	240
4	2175	179.147558353654	241
4	2181	179.725963303318	242
4	2196	182.149035225242	243
4	2201	182.522549650547	244
4	2211	183.970265712964	245
4	2215	184.169290889738	246
4	2227	185.876848034519	247
4	2237	187.215995950799	248
4	2240	187.346340857867	249
4	2246	187.942724132123	250
4	2251	188.209409568978	251
4	2257	188.930292390601	252
4	2261	189.124039797189	253
4	2273	190.832094575076	254
4	2278	191.304747736143	255
4	2284	191.946532433169	256
4	2290	192.496129299851	257
4	2296	193.125146925206	258
4	2301	193.489117416193	259
4	2308	194.208530211289	260
4	2315	195.158001326428	261
4	2321	195.613542560733	262
4	2327	196.335994961167	263
4	2336	197.515638877193	264
4	2343	198.269455013161	265
4	2348	198.761453315727	266
4	2352	198.874577544343	267
4	2355	198.874873170034	268
4	2363	199.835778617737	269
4	2366	199.856637011309	270
5	8	0.117199895458	1
5	21	0.530893549754	2
5	41	1.473978900669	3
5	63	2.920613832121	4
5	77	3.134530270298	5
5	99	3.731917625234	6
5	101	3.831917625234	7
5	125	4.632056524653	8
5	128	4.732056524653	9
5	141	4.944397373242	10
5	172	6.701528759736	11
5	175	6.801528759736	12
5	207	8.342548339209	13
5	221	8.587672439362	14
5	266	10.873522096546	15
5	285	11.779644024451	16
5	287	11.879644024451	17
5	308	12.209533573313	18
5	310	12.309533573313	19
5	315	12.409533573313	20
5	345	13.232121366815	21
5	346	13.332121366815	22
5	365	13.884252220954	23
5	406	16.763599619049	24
5	443	18.7841019966	25
5	461	19.243913456782	26
5	482	20.584781140058	27
5	529	22.439354546887	28
5	546	22.954923212531	29
5	568	23.629152110879	30
5	569	23.729152110879	31
5	601	25.293776444625	32
5	618	25.758801489837	33
5	637	26.5659310797	34
5	639	26.6659310797	35
5	663	27.589048498201	36
5	665	27.689048498201	37
5	695	29.803601894636	38
6	11	0.217299895458	1
6	24	0.630993549754	1
6	43	1.574078900669	1
6	66	3.020713832121	1
6	82	3.234630270298	1
6	102	3.832017625234	1
6	105	3.932017625234	1
6	129	4.732156524653	1
6	133	4.832156524653	1
6	146	5.044497373242	1
6	176	6.801628759736	1
6	180	6.901628759736	1
6	210	8.442648339209	1
6	228	8.687772439362	1
6	268	10.973622096546	1
6	288	11.879744024451	1
6	293	11.979744024451	1
6	311	12.309633573313	1
6	316	12.409633573313	1
6	324	12.509633573313	1
6	347	13.332221366815	1
6	351	13.432221366815	1
6	367	13.984352220954	1
6	409	16.863699619049	1
6	446	18.8842019966	1
6	463	19.344013456782	1
6	485	20.684881140058	1
6	531	22.539454546887	1
6	549	23.055023212531	1
6	570	23.729252110879	1
6	574	23.829252110879	1
6	603	25.393876444625	1
6	621	25.858901489837	1
6	640	26.6660310797	1
6	643	26.7660310797	1
6	666	27.689148498201	1
6	669	27.789148498201	1
6	702	29.903701894636	1
7	14	0.317399895458	1
7	27	0.731093549754	1
7	47	1.674178900669	1
7	69	3.120813832121	1
7	87	3.334730270298	1
7	107	3.932117625234	1
7	111	4.032117625234	1
7	135	4.832256524653	1
7	138	4.932256524653	1
7	149	5.144597373242	1
7	182	6.901728759736	1
7	185	7.001728759736	1
7	213	8.542748339209	1
7	233	8.787872439362	1
7	272	11.073722096546	1
7	295	11.979844024451	1
7	299	12.079844024451	1
7	318	12.409733573313	1
7	326	12.509733573313	1
7	330	12.609733573313	1
7	353	13.432321366815	1
7	356	13.532321366815	1
7	375	14.084452220954	1
7	412	16.963799619049	1
7	449	18.9843019966	1
7	467	19.444113456782	1
7	488	20.784981140058	1
7	535	22.639554546887	1
7	555	23.155123212531	1
7	576	23.829352110879	1
7	579	23.929352110879	1
7	607	25.493976444625	1
7	624	25.959001489837	1
7	645	26.7661310797	1
7	649	26.8661310797	1
7	671	27.789248498201	1
7	675	27.889248498201	1
7	708	30.003801894636	1
8	17	0.517399895458	0.4002
8	34	0.931093549754	0.4002
8	50	1.874178900669	0.4002
8	84	3.320813832121	0.4002
8	94	3.534730270298	0.4002
8	116	4.132117625234	0.934307384605
8	119	4.332117625234	0.6002
8	143	5.032256524653	0.4002
8	155	5.232256524653	0.589922445369
8	158	5.432256524653	0.487859151411
8	191	7.101728759736	0.4002
8	194	7.301728759736	0.576011953025
8	230	8.742748339209	0.4002
8	240	8.987872439362	0.4002
8	279	11.273722096546	2.662254773938
8	304	12.179844024451	3.508086189015
8	313	12.379844024451	1.506321927905
8	328	12.609733573313	0.830089548862
8	336	12.809733573313	0.926781329264
8	339	13.009733573313	0.8002
8	358	13.632321366815	1.189103011252
8	361	13.832321366815	0.6002
8	378	14.284452220954	0.4002
8	419	17.163799619049	0.4002
8	456	19.1843019966	0.4002
8	470	19.644113456782	0.4002
8	495	20.984981140058	0.4002
8	542	22.839554546887	0.549181121015
8	562	23.355123212531	1.063166530145
8	585	24.029352110879	1.589997563992
8	588	24.229352110879	1.274428898348
8	614	25.693976444625	2.626956571141
8	631	26.159001489837	2.529849378958
8	654	26.9661310797	1.672354635075
8	657	27.1661310797	1.407329589863
8	676	27.989248498201	1.423317418501
8	679	28.189248498201	0.6002
8	711	30.203801894636	0.4002
9	17	0.517399895458	1
9	34	0.931093549754	1
9	50	1.874178900669	1
9	84	3.320813832121	1
9	94	3.534730270298	1
9	116	4.132117625234	1
9	119	4.332117625234	1
9	143	5.032256524653	1
9	155	5.232256524653	1
9	158	5.432256524653	1
9	191	7.101728759736	1
9	194	7.301728759736	1
9	230	8.742748339209	1
9	240	8.987872439362	1
9	279	11.273722096546	1
9	304	12.179844024451	1
9	313	12.379844024451	1
9	328	12.609733573313	1
9	336	12.809733573313	1
9	339	13.009733573313	1
9	358	13.632321366815	1
9	361	13.832321366815	1
9	378	14.284452220954	1
9	419	17.163799619049	1
9	456	19.1843019966	1
9	470	19.644113456782	1
9	495	20.984981140058	1
9	542	22.839554546887	1
9	562	23.355123212531	1
9	585	24.029352110879	1
9	588	24.229352110879	1
9	614	25.693976444625	1
9	631	26.159001489837	1
9	654	26.9661310797	1
9	657	27.1661310797	1
9	676	27.989248498201	1
9	679	28.189248498201	1
9	711	30.203801894636	1

