version 3
run FeedbackVersion-17-20240511-20:45:11-11876
attr configname FeedbackVersion
attr datetime 20240511-20:45:11
attr datetimef 20240511-204511
attr experiment FeedbackVersion
attr inifile omnetpp.ini
attr iterationvars $genInterval=0.95
attr iterationvarsd genInterval=0.95
attr iterationvarsf genInterval=0.95-
attr measurement $genInterval=0.95
attr network NetworkFV
attr processid 11876
attr repetition 0
attr replication #0
attr resultdir results
attr runnumber 17
attr seedset 17
itervar genInterval 0.95
config network NetworkFV
config sim-time-limit 200s
config NetworkFV.nodeTx.gen.generationInterval exponential(0.95)
config NetworkFV.nodeTx.gen.packetByteSize 12500
config NetworkFV.queueOne.bufferSize 200
config NetworkFV.nodeRx.queue.bufferSize 200
config NetworkFV.nodeTx.queue.bufferSize 2000000
config NetworkFV.queueZero.bufferSize 200

vector 0 NetworkFV.nodeRx.queue PacketsLost ETV
vector 1 NetworkFV.nodeRx.queue PacketsAsked ETV
vector 2 NetworkFV.queueOne bufferSize ETV
vector 3 NetworkFV.nodeTx.gen packetGen ETV
vector 4 NetworkFV.nodeTx.queue BufferSize ETV
vector 5 NetworkFV.nodeTx.queue PacketsSent ETV
vector 6 NetworkFV.queueZero bufferSize ETV
vector 7 NetworkFV.nodeRx.queue BufferSize ETV
vector 8 NetworkFV.nodeRx.sink Delay ETV
vector 9 NetworkFV.nodeRx.sink packetUsed ETV
0	1	0	1
0	6	0.2	1
0	10	0.4	1
0	35	1.0004	1
0	36	1.2006	1
0	43	1.4008	1
0	50	1.8012	1
0	51	2.0014	1
0	52	2.2016	1
0	57	2.4018	1
0	58	2.602	1
0	59	2.8022	1
0	60	3.0024	1
0	67	3.2026	1
0	81	3.4028	1
0	94	3.8032	1
0	95	4.0034	1
0	96	4.2036	1
0	97	4.4038	1
0	98	4.604	1
0	99	4.8042	1
0	104	5.0044	1
0	105	5.2046	1
0	114	5.4048	1
0	122	5.605	1
0	125	5.8052	1
0	126	6.0054	1
0	127	6.2056	1
0	128	6.4058	1
0	129	6.606	1
0	134	6.8062	1
0	142	7.0064	1
0	147	7.2066	1
0	152	7.4068	1
0	153	7.607	1
0	154	7.8072	1
0	155	8.0074	1
0	156	8.2076	1
0	160	8.4078	1
1	1	0	2
1	25	0.72241853896	2
1	52	2.2016	1
1	69	3.207306139616	1
1	85	3.409276433119	2
1	99	4.8042	1
1	116	5.496434087589	1
1	129	6.606	0
1	134	6.8062	0
1	142	7.0064	0
1	147	7.2066	1
1	160	8.4078	0
2	2	0	1
2	26	0.72241853896	1
2	53	2.2016	1
2	71	3.207306139616	1
2	87	3.409276433119	1
2	100	4.8042	1
2	118	5.496434087589	1
2	130	6.606	1
2	135	6.8062	1
2	143	7.0064	1
2	148	7.2066	1
2	161	8.4078	1
3	7	0.331628297639	1
3	14	0.52221853896	1
3	37	1.240676724659	1
3	61	3.007106139616	1
3	75	3.209076433119	1
3	106	5.296234087589	1
3	109	5.363033865548	1
3	139	6.924966629262	1
3	157	8.394041748532	1
3	175	8.895652396449	1
3	183	9.910331847267	1
3	187	10.013589785305	1
3	194	10.9776388213	1
3	199	11.213069549287	1
3	206	12.027300948618	1
3	213	12.971218467508	1
3	216	13.009072488968	1
3	229	14.876364683925	1
3	234	15.297097534219	1
3	237	15.337138572399	1
3	254	18.104413908059	1
3	263	19.393557030633	1
3	267	19.452383817287	1
3	274	20.255077904576	1
3	286	22.150717437323	1
3	289	22.183887365618	1
3	302	24.176926296804	1
3	306	24.407515578245	1
3	310	24.457438622538	1
3	316	25.092598405729	1
3	324	26.096517038501	1
3	328	26.399020109108	1
3	335	27.161306972933	1
3	339	27.281738146394	1
3	346	28.146326598342	1
3	351	28.484671319954	1
3	357	29.112369955915	1
3	362	29.563221515482	1
3	367	29.879251297155	1
3	370	29.880319601773	1
3	374	30.216079273615	1
3	381	30.832992734766	1
3	387	31.616187719539	1
3	394	32.322748995931	1
3	399	32.801795644144	1
3	403	32.846988067704	1
3	413	34.323743809285	1
3	418	34.697260268218	1
3	423	35.212271849359	1
3	429	35.704867752827	1
3	433	35.852471788726	1
3	437	36.186921282931	1
3	441	36.342328172918	1
3	449	37.381650521923	1
3	452	37.435635012021	1
3	459	38.128207321281	1
3	468	39.330888427267	1
3	478	40.68033368026	1
3	482	41.008805237207	1
3	486	41.193305891746	1
3	490	41.403837357421	1
3	497	42.086364312509	1
3	508	43.777375972062	1
3	519	45.276817161837	1
3	526	46.07416084209	1
3	533	46.977538182184	1
3	537	47.059169836654	1
3	540	47.121382681307	1
3	547	47.869464670154	1
3	552	48.287844930965	1
3	556	48.452303767629	1
3	562	49.19321687343	1
3	571	50.266116066763	1
3	581	51.818700676785	1
3	585	51.938494548377	1
3	589	52.178296245144	1
3	595	52.737637314156	1
3	614	55.884471127544	1
3	627	57.964115708569	1
3	638	59.574821582955	1
3	649	61.090897161392	1
3	654	61.468078265669	1
3	657	61.534957927824	1
3	663	62.120111932172	1
3	681	65.196939744959	1
3	691	66.565405153124	1
3	699	67.588056705925	1
3	702	67.636843496652	1
3	711	68.842017347851	1
3	723	70.531670178007	1
3	732	71.824549837366	1
3	735	71.833990241235	1
3	749	73.911550175631	1
3	753	74.139220017292	1
3	757	74.275837269875	1
3	760	74.461434691684	1
3	771	75.886880736614	1
3	786	78.318126427048	1
3	797	80.047227617705	1
3	809	81.850383928159	1
3	821	83.529865735908	1
3	825	83.779848643358	1
3	828	83.807959627173	1
3	839	85.481272090331	1
3	845	85.951437001369	1
3	849	86.274529527416	1
3	855	86.820706690094	1
3	873	89.710757315901	1
3	879	90.409285769299	1
3	884	90.806369749776	1
3	890	91.451413255552	1
3	897	92.14829303241	1
3	900	92.281060863786	1
3	916	94.713262658632	1
3	938	98.664720834003	1
3	941	98.674936420584	1
3	945	98.739498592909	1
3	950	99.18171017574	1
3	957	100.004217737796	1
3	967	101.448636247776	1
3	974	102.274515990414	1
3	981	102.938222384977	1
3	998	105.870383978504	1
3	1002	105.928579461331	1
3	1006	106.137535158237	1
3	1010	106.380446758716	1
3	1013	106.463099340265	1
3	1031	109.459038725773	1
3	1044	111.504384221971	1
3	1048	111.675296229556	1
3	1051	111.690325877695	1
3	1056	112.108564441112	1
3	1067	113.616832145707	1
3	1088	117.190261013441	1
3	1098	118.57900816946	1
3	1104	119.149356724076	1
3	1116	121.102620522435	1
3	1125	122.147688874391	1
3	1139	124.502026275462	1
3	1145	124.976432049755	1
3	1149	125.280382637681	1
3	1157	126.277308514172	1
3	1162	126.533510663118	1
3	1171	127.760475589312	1
3	1175	128.113702079863	1
3	1190	130.433447861139	1
3	1199	131.628097278892	1
3	1203	131.927792841618	1
3	1207	132.009834270367	1
3	1212	132.483411392764	1
3	1221	133.552567952184	1
3	1229	134.619879641002	1
3	1241	136.477728045615	1
3	1247	137.114975753089	1
3	1256	138.236518879892	1
3	1263	138.942531562445	1
3	1273	140.403162812505	1
3	1278	140.78545884665	1
3	1283	141.199510435697	1
3	1301	144.233769219953	1
3	1305	144.470041469947	1
3	1309	144.719164456068	1
3	1314	144.986618794407	1
3	1324	146.348082674098	1
3	1333	147.582888582504	1
3	1337	147.747549805421	1
3	1340	147.810512305871	1
3	1362	151.557558994172	1
3	1367	152.131981795448	1
3	1372	152.405747880951	1
3	1378	153.041108489111	1
3	1382	153.20490933035	1
3	1390	154.177789408753	1
3	1396	154.916375262276	1
3	1400	155.023001740364	1
3	1404	155.175803150842	1
3	1411	155.985583823998	1
3	1418	156.879811334795	1
3	1436	159.945991735548	1
3	1443	160.74393395413	1
3	1450	161.432694052789	1
3	1462	163.221348132081	1
3	1469	164.022733250673	1
3	1472	164.039507444897	1
3	1496	168.241741335368	1
3	1501	168.673137809185	1
3	1513	170.37267728705	1
3	1520	171.29741099	1
3	1526	171.95238034551	1
3	1531	172.200125094475	1
3	1534	172.279493911296	1
3	1540	172.872413484012	1
3	1553	174.818305339773	1
3	1559	175.524781571774	1
3	1568	176.710927038567	1
3	1577	177.799258774974	1
3	1586	179.050585930639	1
3	1589	179.177066987489	1
3	1601	180.825425696294	1
3	1606	181.300028901901	1
3	1616	182.598118612997	1
3	1619	182.737819059753	1
3	1625	183.244014356369	1
3	1631	183.837758016239	1
3	1637	184.524607079956	1
3	1644	185.187413246124	1
3	1655	186.968022071355	1
3	1659	187.102872623943	1
3	1671	188.962989246315	1
3	1687	191.56551352263	1
3	1692	191.918717650726	1
3	1699	192.787400708827	1
3	1703	192.908180228583	1
3	1710	193.67506223059	1
3	1716	194.374233819083	1
3	1735	197.538565852	1
3	1741	198.104699212343	1
3	1745	198.261634888427	1
4	8	0.331628297639	1
4	15	0.52221853896	1
4	38	1.240676724659	1
4	62	3.007106139616	1
4	76	3.209076433119	1
4	107	5.296234087589	1
4	110	5.363033865548	1
4	140	6.924966629262	2
4	158	8.394041748532	3
4	176	8.895652396449	3
4	184	9.910331847267	4
4	188	10.013589785305	5
4	195	10.9776388213	6
4	200	11.213069549287	7
4	207	12.027300948618	8
4	214	12.971218467508	9
4	217	13.009072488968	10
4	230	14.876364683925	11
4	235	15.297097534219	12
4	238	15.337138572399	13
4	255	18.104413908059	14
4	264	19.393557030633	15
4	268	19.452383817287	16
4	275	20.255077904576	17
4	287	22.150717437323	18
4	290	22.183887365618	19
4	303	24.176926296804	20
4	307	24.407515578245	21
4	311	24.457438622538	22
4	317	25.092598405729	23
4	325	26.096517038501	24
4	329	26.399020109108	25
4	336	27.161306972933	26
4	340	27.281738146394	27
4	347	28.146326598342	28
4	352	28.484671319954	29
4	358	29.112369955915	30
4	363	29.563221515482	31
4	368	29.879251297155	32
4	371	29.880319601773	33
4	375	30.216079273615	34
4	382	30.832992734766	35
4	388	31.616187719539	36
4	395	32.322748995931	37
4	400	32.801795644144	38
4	404	32.846988067704	39
4	414	34.323743809285	40
4	419	34.697260268218	41
4	424	35.212271849359	42
4	430	35.704867752827	43
4	434	35.852471788726	44
4	438	36.186921282931	45
4	442	36.342328172918	46
4	450	37.381650521923	47
4	453	37.435635012021	48
4	460	38.128207321281	49
4	469	39.330888427267	50
4	479	40.68033368026	51
4	483	41.008805237207	52
4	487	41.193305891746	53
4	491	41.403837357421	54
4	498	42.086364312509	55
4	509	43.777375972062	56
4	520	45.276817161837	57
4	527	46.07416084209	58
4	534	46.977538182184	59
4	538	47.059169836654	60
4	541	47.121382681307	61
4	548	47.869464670154	62
4	553	48.287844930965	63
4	557	48.452303767629	64
4	563	49.19321687343	65
4	572	50.266116066763	66
4	582	51.818700676785	67
4	586	51.938494548377	68
4	590	52.178296245144	69
4	596	52.737637314156	70
4	615	55.884471127544	71
4	628	57.964115708569	72
4	639	59.574821582955	73
4	650	61.090897161392	74
4	655	61.468078265669	75
4	658	61.534957927824	76
4	664	62.120111932172	77
4	682	65.196939744959	78
4	692	66.565405153124	79
4	700	67.588056705925	80
4	703	67.636843496652	81
4	712	68.842017347851	82
4	724	70.531670178007	83
4	733	71.824549837366	84
4	736	71.833990241235	85
4	750	73.911550175631	86
4	754	74.139220017292	87
4	758	74.275837269875	88
4	761	74.461434691684	89
4	772	75.886880736614	90
4	787	78.318126427048	91
4	798	80.047227617705	92
4	810	81.850383928159	93
4	822	83.529865735908	94
4	826	83.779848643358	95
4	829	83.807959627173	96
4	840	85.481272090331	97
4	846	85.951437001369	98
4	850	86.274529527416	99
4	856	86.820706690094	100
4	874	89.710757315901	101
4	880	90.409285769299	102
4	885	90.806369749776	103
4	891	91.451413255552	104
4	898	92.14829303241	105
4	901	92.281060863786	106
4	917	94.713262658632	107
4	939	98.664720834003	108
4	942	98.674936420584	109
4	946	98.739498592909	110
4	951	99.18171017574	111
4	958	100.004217737796	112
4	968	101.448636247776	113
4	975	102.274515990414	114
4	982	102.938222384977	115
4	999	105.870383978504	116
4	1003	105.928579461331	117
4	1007	106.137535158237	118
4	1011	106.380446758716	119
4	1014	106.463099340265	120
4	1032	109.459038725773	121
4	1045	111.504384221971	122
4	1049	111.675296229556	123
4	1052	111.690325877695	124
4	1057	112.108564441112	125
4	1068	113.616832145707	126
4	1089	117.190261013441	127
4	1099	118.57900816946	128
4	1105	119.149356724076	129
4	1117	121.102620522435	130
4	1126	122.147688874391	131
4	1140	124.502026275462	132
4	1146	124.976432049755	133
4	1150	125.280382637681	134
4	1158	126.277308514172	135
4	1163	126.533510663118	136
4	1172	127.760475589312	137
4	1176	128.113702079863	138
4	1191	130.433447861139	139
4	1200	131.628097278892	140
4	1204	131.927792841618	141
4	1208	132.009834270367	142
4	1213	132.483411392764	143
4	1222	133.552567952184	144
4	1230	134.619879641002	145
4	1242	136.477728045615	146
4	1248	137.114975753089	147
4	1257	138.236518879892	148
4	1264	138.942531562445	149
4	1274	140.403162812505	150
4	1279	140.78545884665	151
4	1284	141.199510435697	152
4	1302	144.233769219953	153
4	1306	144.470041469947	154
4	1310	144.719164456068	155
4	1315	144.986618794407	156
4	1325	146.348082674098	157
4	1334	147.582888582504	158
4	1338	147.747549805421	159
4	1341	147.810512305871	160
4	1363	151.557558994172	161
4	1368	152.131981795448	162
4	1373	152.405747880951	163
4	1379	153.041108489111	164
4	1383	153.20490933035	165
4	1391	154.177789408753	166
4	1397	154.916375262276	167
4	1401	155.023001740364	168
4	1405	155.175803150842	169
4	1412	155.985583823998	170
4	1419	156.879811334795	171
4	1437	159.945991735548	172
4	1444	160.74393395413	173
4	1451	161.432694052789	174
4	1463	163.221348132081	175
4	1470	164.022733250673	176
4	1473	164.039507444897	177
4	1497	168.241741335368	178
4	1502	168.673137809185	179
4	1514	170.37267728705	180
4	1521	171.29741099	181
4	1527	171.95238034551	182
4	1532	172.200125094475	183
4	1535	172.279493911296	184
4	1541	172.872413484012	185
4	1554	174.818305339773	186
4	1560	175.524781571774	187
4	1569	176.710927038567	188
4	1578	177.799258774974	189
4	1587	179.050585930639	190
4	1590	179.177066987489	191
4	1602	180.825425696294	192
4	1607	181.300028901901	193
4	1617	182.598118612997	194
4	1620	182.737819059753	195
4	1626	183.244014356369	196
4	1632	183.837758016239	197
4	1638	184.524607079956	198
4	1645	185.187413246124	199
4	1656	186.968022071355	200
4	1660	187.102872623943	201
4	1672	188.962989246315	202
4	1688	191.56551352263	203
4	1693	191.918717650726	204
4	1700	192.787400708827	205
4	1704	192.908180228583	206
4	1711	193.67506223059	207
4	1717	194.374233819083	208
4	1736	197.538565852	209
4	1742	198.104699212343	210
4	1746	198.261634888427	211
5	9	0.331628297639	1
5	16	0.52221853896	2
5	39	1.240676724659	3
5	63	3.007106139616	4
5	77	3.209076433119	5
5	108	5.296234087589	6
5	159	8.394041748532	7
6	12	0.431728297639	1
6	22	0.62231853896	1
6	41	1.340776724659	1
6	65	3.107206139616	1
6	79	3.309176433119	1
6	112	5.396334087589	1
6	166	8.494141748532	1
7	18	0.531828297639	1
7	25	0.72241853896	1
7	45	1.440876724659	1
7	69	3.207306139616	1
7	85	3.409276433119	1
7	116	5.496434087589	1
7	169	8.594241748532	1
8	30	0.731828297639	0.4002
8	33	0.931828297639	0.409609758679
8	48	1.640876724659	0.4002
8	82	3.407306139616	0.4002
8	92	3.609276433119	0.4002
8	123	5.696434087589	0.4002
8	172	8.794241748532	3.431207882984
9	30	0.731828297639	1
9	33	0.931828297639	1
9	48	1.640876724659	1
9	82	3.407306139616	1
9	92	3.609276433119	1
9	123	5.696434087589	1
9	172	8.794241748532	1

