version 3
run FeedbackVersion-6-20240511-20:45:11-11876
attr configname FeedbackVersion
attr datetime 20240511-20:45:11
attr datetimef 20240511-204511
attr experiment FeedbackVersion
attr inifile omnetpp.ini
attr iterationvars $genInterval=0.4
attr iterationvarsd genInterval=0.4
attr iterationvarsf genInterval=0.4-
attr measurement $genInterval=0.4
attr network NetworkFV
attr processid 11876
attr repetition 0
attr replication #0
attr resultdir results
attr runnumber 6
attr seedset 6
itervar genInterval 0.4
config network NetworkFV
config sim-time-limit 200s
config NetworkFV.nodeTx.gen.generationInterval exponential(0.4)
config NetworkFV.nodeTx.gen.packetByteSize 12500
config NetworkFV.queueOne.bufferSize 200
config NetworkFV.nodeRx.queue.bufferSize 200
config NetworkFV.nodeTx.queue.bufferSize 2000000
config NetworkFV.queueZero.bufferSize 200

vector 0 NetworkFV.nodeRx.queue PacketsLost ETV
vector 1 NetworkFV.nodeRx.queue PacketsAsked ETV
vector 2 NetworkFV.queueOne bufferSize ETV
vector 3 NetworkFV.nodeTx.gen packetGen ETV
vector 4 NetworkFV.nodeTx.queue BufferSize ETV
vector 5 NetworkFV.nodeTx.queue PacketsSent ETV
vector 6 NetworkFV.queueZero bufferSize ETV
vector 7 NetworkFV.nodeRx.queue BufferSize ETV
vector 8 NetworkFV.nodeRx.sink Delay ETV
vector 9 NetworkFV.nodeRx.sink packetUsed ETV
0	1	0	1
0	6	0.2	1
0	7	0.4	1
0	8	0.6	1
0	9	0.8	1
0	16	1	1
0	23	1.4002	1
0	28	1.6004	1
0	29	1.8006	1
0	30	2.0008	1
0	37	2.201	1
0	58	2.6014	1
0	59	2.8016	1
0	60	3.0018	1
0	71	3.202	1
0	104	3.8026	1
0	107	4.0028	1
0	108	4.203	1
0	109	4.4032	1
0	110	4.6034	1
0	111	4.8036	1
0	119	5.0038	1
0	130	5.204	1
0	138	5.4042	1
0	158	5.8046	1
0	179	6.205	1
0	248	7.4062	1
0	266	8.0068	1
0	275	8.207	1
0	296	8.8076	1
0	303	9.0078	1
0	310	9.4082	1
0	321	9.6084	1
0	393	11.0098	1
0	403	11.4102	1
0	417	11.8106	1
0	418	12.0108	1
0	419	12.211	1
0	420	12.4112	1
0	421	12.6114	1
0	422	12.8116	1
0	427	13.0118	1
0	431	13.212	1
0	441	13.6124	1
0	442	13.8126	1
0	443	14.0128	1
0	447	14.213	1
0	462	14.4132	1
0	465	14.6134	1
0	466	14.8136	1
0	473	15.0138	1
0	484	15.214	1
0	515	15.8146	1
0	529	16.215	1
0	530	16.4152	1
0	531	16.6154	1
0	538	16.8156	1
0	545	17.216	1
0	552	17.4162	1
0	564	17.6164	1
0	567	17.8166	1
0	571	18.0168	1
0	593	18.4172	1
0	614	18.8176	1
0	626	19.218	1
0	645	19.8186	1
0	652	20.0188	1
0	666	20.4192	1
0	670	20.6194	1
0	698	21.4202	1
0	705	21.6204	1
0	730	22.221	1
0	768	23.0218	1
0	771	23.222	1
0	772	23.4222	1
0	773	23.6224	1
0	777	23.8226	1
0	824	24.8236	1
0	834	25.0238	1
0	844	25.4242	1
0	851	25.6244	1
0	870	26.225	1
0	871	26.4252	1
0	872	26.6254	1
0	877	26.8256	1
0	878	27.0258	1
0	879	27.226	1
0	880	27.4262	1
0	881	27.6264	1
0	885	27.8266	1
1	1	0	2
1	23	1.4002	1
1	42	2.272242711789	0
1	51	2.4012	1
1	73	3.216266061121	2
1	96	3.544750807095	3
1	111	4.8036	1
1	124	5.170963783001	1
1	143	5.532562497513	2
1	165	5.97632559335	3
1	194	6.45140654375	5
1	237	7.170822391837	8
1	310	9.4082	4
1	356	10.210471349506	4
1	408	11.554118510787	6
1	422	12.8116	3
1	447	14.213	1
1	456	14.387532602017	1
1	475	15.073136979291	1
1	491	15.329378718142	2
1	520	15.996515791807	3
1	552	17.4162	1
1	558	17.479601468182	1
1	576	18.173963605817	2
1	600	18.519095562531	4
1	657	20.109020493004	6
1	732	22.24151051997	9
1	824	24.8236	4
1	872	26.6254	1
1	885	27.8266	0
2	2	0	1
2	24	1.4002	1
2	44	2.272242711789	1
2	52	2.4012	1
2	75	3.216266061121	1
2	97	3.544750807095	1
2	112	4.8036	1
2	126	5.170963783001	1
2	145	5.532562497513	1
2	166	5.97632559335	1
2	195	6.45140654375	1
2	238	7.170822391837	1
2	311	9.4082	1
2	357	10.210471349506	1
2	410	11.554118510787	1
2	423	12.8116	1
2	448	14.213	1
2	458	14.387532602017	1
2	477	15.073136979291	1
2	493	15.329378718142	1
2	522	15.996515791807	1
2	553	17.4162	1
2	560	17.479601468182	1
2	578	18.173963605817	1
2	601	18.519095562531	1
2	659	20.109020493004	1
2	734	22.24151051997	1
2	825	24.8236	1
2	873	26.6254	1
2	886	27.8266	1
3	10	0.893448103126	1
3	31	2.072042711789	1
3	38	2.233417461	1
3	48	2.327405932924	1
3	61	3.016066061121	1
3	64	3.042630803465	1
3	66	3.059667154385	1
3	79	3.244550807095	1
3	82	3.29011253847	1
3	116	4.970763783001	1
3	131	5.332362497513	1
3	136	5.374271967556	1
3	150	5.67612559335	1
3	171	6.05120654375	1
3	184	6.268275796548	1
3	201	6.570622391837	1
3	210	6.734055085235	1
3	227	6.997810634845	1
3	245	7.387505106344	1
3	269	8.085171481721	1
3	281	8.315773521834	1
3	297	8.878393520259	1
3	315	9.410937402142	1
3	322	9.608639916801	1
3	336	9.900594602178	1
3	343	10.010271349506	1
3	363	10.356186008473	1
3	367	10.423844746057	1
3	385	10.838500044591	1
3	400	11.353918510787	1
3	428	13.205059562799	1
3	444	14.187332602017	1
3	467	14.872936979291	1
3	481	15.129178718142	1
3	497	15.342407848503	1
3	512	15.796315791807	1
3	532	16.632169603195	1
3	546	17.279401468182	1
3	568	17.973763605817	1
3	583	18.218895562531	1
3	586	18.241301332666	1
3	608	18.689441690646	1
3	623	19.196685886673	1
3	627	19.260680479076	1
3	646	19.908820493004	1
3	653	20.085523985928	1
3	667	20.618863051989	1
3	682	21.002204919727	1
3	699	21.49615886774	1
3	709	21.729883515605	1
3	722	22.04131051997	1
3	738	22.384474306346	1
3	742	22.437806494926	1
3	746	22.473269593922	1
3	774	23.737958788614	1
3	781	23.839030784408	1
3	793	24.045537814931	1
3	798	24.143841881387	1
3	804	24.241665964929	1
3	831	24.940209102455	1
3	845	25.445522530906	1
3	855	25.692175836766	1
3	882	27.752647985214	1
3	897	28.06824027448	1
3	902	28.186318529676	1
3	908	28.806050503197	1
3	914	29.251105894698	1
3	919	29.789721338043	1
3	924	30.155244774353	1
3	930	30.664570457319	1
3	935	31.169963546767	1
3	941	31.809414704437	1
3	950	32.917488363115	1
3	957	33.771965545668	1
3	961	33.945393969227	1
3	968	34.634895316535	1
3	971	34.751911043534	1
3	975	34.897990553726	1
3	979	35.103972546069	1
3	985	35.65115813123	1
3	990	36.200131622721	1
3	994	36.396684144832	1
3	1000	36.911728193466	1
3	1004	37.165428755651	1
3	1008	37.373851732618	1
3	1014	37.869062682316	1
3	1026	39.68706352851	1
3	1030	39.868795412679	1
3	1034	40.108293486305	1
3	1042	41.156585845363	1
3	1046	41.343825418174	1
3	1052	41.870812093668	1
3	1057	42.365449903257	1
3	1061	42.477249279608	1
3	1064	42.51167229077	1
3	1069	42.967026711	1
3	1073	43.170273707694	1
3	1076	43.194844716823	1
3	1082	43.784250162144	1
3	1089	44.560228244927	1
3	1095	45.139072513158	1
3	1099	45.409351198469	1
3	1103	45.542902693143	1
3	1108	45.84712609909	1
3	1111	45.931188497129	1
3	1114	45.996976103041	1
3	1119	46.251872653239	1
3	1125	46.904918644826	1
3	1129	47.067989289736	1
3	1134	47.448558601082	1
3	1139	47.979369052637	1
3	1143	48.09402978232	1
3	1146	48.177877506787	1
3	1150	48.379366538277	1
3	1154	48.540217258881	1
3	1159	48.86867857187	1
3	1165	49.612424401932	1
3	1170	49.937046356542	1
3	1175	50.318876106972	1
3	1179	50.640188924684	1
3	1187	51.506237768208	1
3	1191	51.754464848584	1
3	1202	53.255670236856	1
3	1207	53.699931448189	1
3	1213	54.425309230288	1
3	1221	55.285869763754	1
3	1224	55.365652597661	1
3	1228	55.626995802367	1
3	1233	56.012359756529	1
3	1237	56.227569729035	1
3	1242	56.48615828454	1
3	1245	56.601972162989	1
3	1249	56.809083156551	1
3	1258	57.978478778173	1
3	1264	58.520216757866	1
3	1275	60.152154452452	1
3	1281	60.8514811157	1
3	1286	61.172536343825	1
3	1291	61.632367857209	1
3	1296	61.951661083941	1
3	1299	62.011651596397	1
3	1304	62.261033366884	1
3	1309	62.746407079284	1
3	1313	62.941175432659	1
3	1316	62.965431129843	1
3	1320	63.174797868258	1
3	1323	63.260404737306	1
3	1327	63.39467751198	1
3	1335	64.429685993405	1
3	1338	64.430027130951	1
3	1342	64.637773564858	1
3	1347	64.865870672952	1
3	1350	64.930075065055	1
3	1355	65.28412421477	1
3	1360	65.742767107144	1
3	1364	66.038679646113	1
3	1368	66.110085768732	1
3	1373	66.567343926462	1
3	1378	66.985249605811	1
3	1381	67.022183169046	1
3	1385	67.138117802583	1
3	1390	67.534748022352	1
3	1393	67.55165035504	1
3	1399	68.156335483514	1
3	1408	69.431311545886	1
3	1412	69.518903486661	1
3	1415	69.546309458498	1
3	1419	69.80930287072	1
3	1424	70.097050207617	1
3	1428	70.285891972194	1
3	1431	70.45288473701	1
3	1435	70.472427475267	1
3	1440	70.903962892667	1
3	1443	71.056044056313	1
3	1450	71.800301003091	1
3	1455	72.21928693575	1
3	1460	72.589688592413	1
3	1464	72.708195256831	1
3	1468	73.062125349313	1
3	1473	73.303636140123	1
3	1476	73.353423138875	1
3	1479	73.409313249151	1
3	1485	73.905084622763	1
3	1492	74.753081387238	1
3	1495	74.844606854044	1
3	1508	76.734725205463	1
3	1512	77.004351597586	1
3	1515	77.044434324571	1
3	1518	77.059352497988	1
3	1524	77.665987014546	1
3	1528	77.817557324154	1
3	1532	77.971000285951	1
3	1539	78.766198825795	1
3	1543	78.995129436332	1
3	1548	79.322130097259	1
3	1553	79.755885295087	1
3	1557	80.072372653855	1
3	1561	80.228198689098	1
3	1565	80.411634083981	1
3	1568	80.42156082726	1
3	1575	81.126029688684	1
3	1580	81.610283855369	1
3	1584	81.73966307863	1
3	1590	82.377098712991	1
3	1593	82.430812339834	1
3	1597	82.483194007148	1
3	1601	82.814122502305	1
3	1608	83.575362682416	1
3	1612	83.699791551646	1
3	1619	84.650157381489	1
3	1625	85.246881439101	1
3	1629	85.335101362154	1
3	1632	85.414192257171	1
3	1635	85.450643777539	1
3	1641	86.062260352588	1
3	1648	86.871519269117	1
3	1653	87.246112891731	1
3	1660	87.920506221185	1
3	1663	87.937564381296	1
3	1666	88.082459565639	1
3	1671	88.412012680978	1
3	1674	88.422409186219	1
3	1679	88.863623283992	1
3	1685	89.433701640783	1
3	1694	90.548490972016	1
3	1699	90.955805534891	1
3	1705	91.572528192519	1
3	1710	91.90496856	1
3	1715	92.460175652502	1
3	1723	93.421118005438	1
3	1728	93.696024584478	1
3	1733	94.147690271375	1
3	1736	94.165159234669	1
3	1740	94.298568949439	1
3	1746	94.977587073646	1
3	1750	95.216718790571	1
3	1753	95.222205747262	1
3	1766	97.167877688066	1
3	1770	97.487317377732	1
3	1774	97.60405095571	1
3	1779	97.938670275877	1
3	1786	98.803743659895	1
3	1789	98.851670952232	1
3	1793	99.020720037482	1
3	1796	99.046653326324	1
3	1800	99.179465994806	1
3	1805	99.521472966865	1
3	1810	100.005247826734	1
3	1814	100.271060261709	1
3	1818	100.444545917569	1
3	1822	100.588029350053	1
3	1825	100.607064694139	1
3	1828	100.623308316933	1
3	1832	100.818093758378	1
3	1837	101.220026851355	1
3	1843	101.844433410707	1
3	1846	101.897542392316	1
3	1854	102.854129679025	1
3	1857	102.858799166068	1
3	1860	102.887378143952	1
3	1864	103.016932148593	1
3	1873	104.184018669793	1
3	1877	104.327572789023	1
3	1880	104.458958434651	1
3	1884	104.538493781877	1
3	1890	105.221578977704	1
3	1893	105.249309562201	1
3	1896	105.261849030065	1
3	1902	105.866109721219	1
3	1909	106.558121787586	1
3	1913	106.762951331286	1
3	1918	107.258640963588	1
3	1922	107.371487914801	1
3	1929	108.133146294166	1
3	1933	108.429889874138	1
3	1936	108.447730554846	1
3	1940	108.565471297752	1
3	1944	108.848248709705	1
3	1951	109.612218602434	1
3	1954	109.705175584916	1
3	1959	109.969450349527	1
3	1964	110.494897534982	1
3	1969	110.885260697494	1
3	1974	111.299284798531	1
3	1985	112.745127675036	1
3	1991	113.358422264748	1
3	1995	113.533667711203	1
3	1999	113.757618865756	1
3	2002	113.85939290652	1
3	2007	114.257334051036	1
3	2018	115.797212681212	1
3	2022	115.971635110877	1
3	2027	116.325430268311	1
3	2036	117.553997113176	1
3	2047	119.153932154585	1
3	2052	119.537019121046	1
3	2062	120.922240730021	1
3	2066	121.192052899396	1
3	2071	121.680505829645	1
3	2075	121.798997366774	1
3	2078	121.806827837673	1
3	2081	121.914959390082	1
3	2086	122.29451635825	1
3	2091	122.589452888468	1
3	2094	122.704290676989	1
3	2100	123.147868452377	1
3	2103	123.20331391948	1
3	2108	123.522458015038	1
3	2111	123.704905331178	1
3	2115	123.89701473374	1
3	2119	123.986318908437	1
3	2124	124.399434131927	1
3	2130	124.981231574923	1
3	2137	125.893469488036	1
3	2146	126.981809203122	1
3	2150	127.273575020713	1
3	2153	127.284277901139	1
3	2161	128.13647890578	1
3	2164	128.254798803871	1
3	2168	128.340902914352	1
3	2171	128.464709355551	1
3	2178	129.159621075376	1
3	2181	129.221034357761	1
3	2185	129.377658282968	1
3	2194	130.588129150875	1
3	2199	131.060653363518	1
3	2203	131.174454587913	1
3	2208	131.659080016908	1
3	2212	131.835218285216	1
3	2218	132.459696954916	1
3	2221	132.479767821588	1
3	2225	132.574349193516	1
3	2228	132.683141281058	1
3	2233	133.111122712128	1
3	2241	133.968756558855	1
3	2249	134.94910545608	1
3	2258	136.283640438111	1
3	2262	136.388222685371	1
3	2267	136.815100491425	1
3	2270	136.838759838763	1
3	2274	136.979640172701	1
3	2277	137.116862424201	1
3	2281	137.14133012002	1
3	2285	137.376265899382	1
3	2292	138.175591900936	1
3	2295	138.178772922151	1
3	2298	138.246207082975	1
3	2304	138.837035273188	1
3	2308	138.962672028848	1
3	2311	139.066568437633	1
3	2316	139.384378821353	1
3	2321	139.862589780963	1
3	2325	139.978879089993	1
3	2331	140.683994943604	1
3	2338	141.428897125292	1
3	2343	141.744116461981	1
3	2347	142.023151178848	1
3	2351	142.302960857826	1
3	2356	142.568155037939	1
3	2359	142.631328333448	1
3	2367	143.57397012682	1
3	2372	144.047182057575	1
3	2380	145.034488672022	1
3	2384	145.146686996899	1
3	2387	145.257319338663	1
3	2391	145.479771113812	1
3	2394	145.48734920332	1
3	2399	145.892561731259	1
3	2404	146.33637808106	1
3	2408	146.388598467841	1
3	2411	146.514791599786	1
3	2420	147.742749510869	1
3	2424	147.748513422522	1
3	2428	147.967427176764	1
3	2431	148.008298031858	1
3	2435	148.247051383303	1
3	2439	148.46414147325	1
3	2443	148.564587818961	1
3	2446	148.615970441581	1
3	2449	148.678502578883	1
3	2453	148.771320293822	1
3	2458	149.317441130744	1
3	2464	149.864124834049	1
3	2471	150.628060541527	1
3	2475	150.871353604409	1
3	2479	151.104166173655	1
3	2483	151.152360182488	1
3	2486	151.273073186536	1
3	2490	151.370066770907	1
3	2493	151.410948184407	1
3	2501	152.476044642512	1
3	2504	152.501502723317	1
3	2507	152.504673155195	1
3	2511	152.561191938956	1
3	2516	152.971937677495	1
3	2525	154.208373278086	1
3	2530	154.622248205232	1
3	2536	155.240550302377	1
3	2541	155.696638245547	1
3	2545	155.851648056291	1
3	2550	156.196893531361	1
3	2554	156.422187265217	1
3	2560	157.0361573841	1
3	2564	157.334048112292	1
3	2571	158.024093533066	1
3	2575	158.356832448168	1
3	2581	158.773153991685	1
3	2587	159.403650143764	1
3	2590	159.482854770587	1
3	2593	159.52952821172	1
3	2599	160.047777827415	1
3	2603	160.288063790312	1
3	2607	160.422091847502	1
3	2611	160.744769890149	1
3	2618	161.481510986866	1
3	2626	162.459320428665	1
3	2631	162.797063968124	1
3	2639	163.827965015833	1
3	2642	163.863614510136	1
3	2646	164.124384980854	1
3	2654	165.091817755892	1
3	2657	165.139000962608	1
3	2662	165.387298759466	1
3	2667	165.871551056059	1
3	2676	167.01675745631	1
3	2680	167.298353588089	1
3	2683	167.314887557663	1
3	2686	167.359531565851	1
3	2690	167.405002889628	1
3	2697	168.25976514105	1
3	2703	168.82354054023	1
3	2706	168.851337263316	1
3	2709	168.868407408278	1
3	2713	169.097816283934	1
3	2717	169.338089539787	1
3	2723	169.80880575553	1
3	2729	170.486120205415	1
3	2733	170.584841173116	1
3	2737	170.802179142376	1
3	2740	170.858619000276	1
3	2743	170.942887224395	1
3	2750	171.648923954937	1
3	2757	172.390575197793	1
3	2761	172.713125512117	1
3	2764	172.758503341327	1
3	2768	172.860193065171	1
3	2772	172.996074455935	1
3	2776	173.32584931017	1
3	2780	173.423682396274	1
3	2786	174.123967256089	1
3	2791	174.373615168716	1
3	2798	175.306767863598	1
3	2802	175.460791979602	1
3	2807	175.856153531175	1
3	2815	176.815326004806	1
3	2821	177.447836871123	1
3	2827	178.063852692069	1
3	2832	178.542995101944	1
3	2838	179.032326251262	1
3	2842	179.247223707354	1
3	2845	179.307507959945	1
3	2849	179.419444195095	1
3	2854	179.797960024714	1
3	2858	180.115040910258	1
3	2865	180.877895637426	1
3	2873	181.913252434891	1
3	2881	182.942844457286	1
3	2886	183.299097324286	1
3	2891	183.733230373983	1
3	2895	183.97744950655	1
3	2899	184.097340289001	1
3	2904	184.432972113208	1
3	2907	184.562599721327	1
3	2912	184.787638718844	1
3	2917	185.191306063498	1
3	2920	185.312474835585	1
3	2926	185.828005602427	1
3	2929	185.861442581021	1
3	2933	186.007318081689	1
3	2941	187.093994799672	1
3	2946	187.547229821973	1
3	2950	187.651540846162	1
3	2954	187.934028502319	1
3	2957	187.939455048798	1
3	2964	188.646795098448	1
3	2968	188.865385119174	1
3	2973	189.325302803464	1
3	2976	189.352556016448	1
3	2984	190.316184358037	1
3	2989	190.611920439295	1
3	2992	190.663026343556	1
3	2996	190.858293003225	1
3	3003	191.590658985363	1
3	3006	191.697431638651	1
3	3015	192.882117461016	1
3	3020	193.213825360289	1
3	3024	193.554795959848	1
3	3028	193.651410324509	1
3	3031	193.653071782075	1
3	3034	193.721438841382	1
3	3037	193.735073517768	1
3	3042	194.138030261727	1
3	3046	194.350758735093	1
3	3050	194.494595404979	1
3	3054	194.739795776724	1
3	3062	195.641492800123	1
3	3066	195.901261159877	1
3	3071	196.322240627832	1
3	3076	196.779794361951	1
3	3084	197.696255013621	1
3	3090	198.258676633421	1
3	3093	198.364762854745	1
3	3100	199.052429865912	1
3	3103	199.172354445432	1
3	3107	199.342402745061	1
3	3113	199.925782339005	1
4	11	0.893448103126	1
4	32	2.072042711789	1
4	39	2.233417461	1
4	49	2.327405932924	2
4	62	3.016066061121	3
4	65	3.042630803465	3
4	67	3.059667154385	4
4	80	3.244550807095	5
4	83	3.29011253847	5
4	117	4.970763783001	5
4	132	5.332362497513	5
4	137	5.374271967556	5
4	151	5.67612559335	6
4	172	6.05120654375	5
4	185	6.268275796548	3
4	202	6.570622391837	4
4	211	6.734055085235	3
4	228	6.997810634845	1
4	246	7.387505106344	2
4	270	8.085171481721	1
4	282	8.315773521834	1
4	298	8.878393520259	1
4	316	9.410937402142	1
4	323	9.608639916801	1
4	337	9.900594602178	1
4	344	10.010271349506	1
4	364	10.356186008473	1
4	368	10.423844746057	1
4	386	10.838500044591	1
4	401	11.353918510787	1
4	429	13.205059562799	1
4	445	14.187332602017	1
4	468	14.872936979291	1
4	482	15.129178718142	1
4	498	15.342407848503	1
4	513	15.796315791807	1
4	533	16.632169603195	1
4	547	17.279401468182	1
4	569	17.973763605817	1
4	584	18.218895562531	1
4	587	18.241301332666	1
4	609	18.689441690646	1
4	624	19.196685886673	1
4	628	19.260680479076	1
4	647	19.908820493004	1
4	654	20.085523985928	1
4	668	20.618863051989	2
4	683	21.002204919727	1
4	700	21.49615886774	1
4	710	21.729883515605	1
4	723	22.04131051997	1
4	739	22.384474306346	1
4	743	22.437806494926	1
4	747	22.473269593922	2
4	775	23.737958788614	1
4	782	23.839030784408	1
4	794	24.045537814931	1
4	799	24.143841881387	1
4	805	24.241665964929	1
4	832	24.940209102455	1
4	846	25.445522530906	1
4	856	25.692175836766	1
4	883	27.752647985214	1
4	898	28.06824027448	1
4	903	28.186318529676	2
4	909	28.806050503197	3
4	915	29.251105894698	4
4	920	29.789721338043	5
4	925	30.155244774353	6
4	931	30.664570457319	7
4	936	31.169963546767	8
4	942	31.809414704437	9
4	951	32.917488363115	10
4	958	33.771965545668	11
4	962	33.945393969227	12
4	969	34.634895316535	13
4	972	34.751911043534	14
4	976	34.897990553726	15
4	980	35.103972546069	16
4	986	35.65115813123	17
4	991	36.200131622721	18
4	995	36.396684144832	19
4	1001	36.911728193466	20
4	1005	37.165428755651	21
4	1009	37.373851732618	22
4	1015	37.869062682316	23
4	1027	39.68706352851	24
4	1031	39.868795412679	25
4	1035	40.108293486305	26
4	1043	41.156585845363	27
4	1047	41.343825418174	28
4	1053	41.870812093668	29
4	1058	42.365449903257	30
4	1062	42.477249279608	31
4	1065	42.51167229077	32
4	1070	42.967026711	33
4	1074	43.170273707694	34
4	1077	43.194844716823	35
4	1083	43.784250162144	36
4	1090	44.560228244927	37
4	1096	45.139072513158	38
4	1100	45.409351198469	39
4	1104	45.542902693143	40
4	1109	45.84712609909	41
4	1112	45.931188497129	42
4	1115	45.996976103041	43
4	1120	46.251872653239	44
4	1126	46.904918644826	45
4	1130	47.067989289736	46
4	1135	47.448558601082	47
4	1140	47.979369052637	48
4	1144	48.09402978232	49
4	1147	48.177877506787	50
4	1151	48.379366538277	51
4	1155	48.540217258881	52
4	1160	48.86867857187	53
4	1166	49.612424401932	54
4	1171	49.937046356542	55
4	1176	50.318876106972	56
4	1180	50.640188924684	57
4	1188	51.506237768208	58
4	1192	51.754464848584	59
4	1203	53.255670236856	60
4	1208	53.699931448189	61
4	1214	54.425309230288	62
4	1222	55.285869763754	63
4	1225	55.365652597661	64
4	1229	55.626995802367	65
4	1234	56.012359756529	66
4	1238	56.227569729035	67
4	1243	56.48615828454	68
4	1246	56.601972162989	69
4	1250	56.809083156551	70
4	1259	57.978478778173	71
4	1265	58.520216757866	72
4	1276	60.152154452452	73
4	1282	60.8514811157	74
4	1287	61.172536343825	75
4	1292	61.632367857209	76
4	1297	61.951661083941	77
4	1300	62.011651596397	78
4	1305	62.261033366884	79
4	1310	62.746407079284	80
4	1314	62.941175432659	81
4	1317	62.965431129843	82
4	1321	63.174797868258	83
4	1324	63.260404737306	84
4	1328	63.39467751198	85
4	1336	64.429685993405	86
4	1339	64.430027130951	87
4	1343	64.637773564858	88
4	1348	64.865870672952	89
4	1351	64.930075065055	90
4	1356	65.28412421477	91
4	1361	65.742767107144	92
4	1365	66.038679646113	93
4	1369	66.110085768732	94
4	1374	66.567343926462	95
4	1379	66.985249605811	96
4	1382	67.022183169046	97
4	1386	67.138117802583	98
4	1391	67.534748022352	99
4	1394	67.55165035504	100
4	1400	68.156335483514	101
4	1409	69.431311545886	102
4	1413	69.518903486661	103
4	1416	69.546309458498	104
4	1420	69.80930287072	105
4	1425	70.097050207617	106
4	1429	70.285891972194	107
4	1432	70.45288473701	108
4	1436	70.472427475267	109
4	1441	70.903962892667	110
4	1444	71.056044056313	111
4	1451	71.800301003091	112
4	1456	72.21928693575	113
4	1461	72.589688592413	114
4	1465	72.708195256831	115
4	1469	73.062125349313	116
4	1474	73.303636140123	117
4	1477	73.353423138875	118
4	1480	73.409313249151	119
4	1486	73.905084622763	120
4	1493	74.753081387238	121
4	1496	74.844606854044	122
4	1509	76.734725205463	123
4	1513	77.004351597586	124
4	1516	77.044434324571	125
4	1519	77.059352497988	126
4	1525	77.665987014546	127
4	1529	77.817557324154	128
4	1533	77.971000285951	129
4	1540	78.766198825795	130
4	1544	78.995129436332	131
4	1549	79.322130097259	132
4	1554	79.755885295087	133
4	1558	80.072372653855	134
4	1562	80.228198689098	135
4	1566	80.411634083981	136
4	1569	80.42156082726	137
4	1576	81.126029688684	138
4	1581	81.610283855369	139
4	1585	81.73966307863	140
4	1591	82.377098712991	141
4	1594	82.430812339834	142
4	1598	82.483194007148	143
4	1602	82.814122502305	144
4	1609	83.575362682416	145
4	1613	83.699791551646	146
4	1620	84.650157381489	147
4	1626	85.246881439101	148
4	1630	85.335101362154	149
4	1633	85.414192257171	150
4	1636	85.450643777539	151
4	1642	86.062260352588	152
4	1649	86.871519269117	153
4	1654	87.246112891731	154
4	1661	87.920506221185	155
4	1664	87.937564381296	156
4	1667	88.082459565639	157
4	1672	88.412012680978	158
4	1675	88.422409186219	159
4	1680	88.863623283992	160
4	1686	89.433701640783	161
4	1695	90.548490972016	162
4	1700	90.955805534891	163
4	1706	91.572528192519	164
4	1711	91.90496856	165
4	1716	92.460175652502	166
4	1724	93.421118005438	167
4	1729	93.696024584478	168
4	1734	94.147690271375	169
4	1737	94.165159234669	170
4	1741	94.298568949439	171
4	1747	94.977587073646	172
4	1751	95.216718790571	173
4	1754	95.222205747262	174
4	1767	97.167877688066	175
4	1771	97.487317377732	176
4	1775	97.60405095571	177
4	1780	97.938670275877	178
4	1787	98.803743659895	179
4	1790	98.851670952232	180
4	1794	99.020720037482	181
4	1797	99.046653326324	182
4	1801	99.179465994806	183
4	1806	99.521472966865	184
4	1811	100.005247826734	185
4	1815	100.271060261709	186
4	1819	100.444545917569	187
4	1823	100.588029350053	188
4	1826	100.607064694139	189
4	1829	100.623308316933	190
4	1833	100.818093758378	191
4	1838	101.220026851355	192
4	1844	101.844433410707	193
4	1847	101.897542392316	194
4	1855	102.854129679025	195
4	1858	102.858799166068	196
4	1861	102.887378143952	197
4	1865	103.016932148593	198
4	1874	104.184018669793	199
4	1878	104.327572789023	200
4	1881	104.458958434651	201
4	1885	104.538493781877	202
4	1891	105.221578977704	203
4	1894	105.249309562201	204
4	1897	105.261849030065	205
4	1903	105.866109721219	206
4	1910	106.558121787586	207
4	1914	106.762951331286	208
4	1919	107.258640963588	209
4	1923	107.371487914801	210
4	1930	108.133146294166	211
4	1934	108.429889874138	212
4	1937	108.447730554846	213
4	1941	108.565471297752	214
4	1945	108.848248709705	215
4	1952	109.612218602434	216
4	1955	109.705175584916	217
4	1960	109.969450349527	218
4	1965	110.494897534982	219
4	1970	110.885260697494	220
4	1975	111.299284798531	221
4	1986	112.745127675036	222
4	1992	113.358422264748	223
4	1996	113.533667711203	224
4	2000	113.757618865756	225
4	2003	113.85939290652	226
4	2008	114.257334051036	227
4	2019	115.797212681212	228
4	2023	115.971635110877	229
4	2028	116.325430268311	230
4	2037	117.553997113176	231
4	2048	119.153932154585	232
4	2053	119.537019121046	233
4	2063	120.922240730021	234
4	2067	121.192052899396	235
4	2072	121.680505829645	236
4	2076	121.798997366774	237
4	2079	121.806827837673	238
4	2082	121.914959390082	239
4	2087	122.29451635825	240
4	2092	122.589452888468	241
4	2095	122.704290676989	242
4	2101	123.147868452377	243
4	2104	123.20331391948	244
4	2109	123.522458015038	245
4	2112	123.704905331178	246
4	2116	123.89701473374	247
4	2120	123.986318908437	248
4	2125	124.399434131927	249
4	2131	124.981231574923	250
4	2138	125.893469488036	251
4	2147	126.981809203122	252
4	2151	127.273575020713	253
4	2154	127.284277901139	254
4	2162	128.13647890578	255
4	2165	128.254798803871	256
4	2169	128.340902914352	257
4	2172	128.464709355551	258
4	2179	129.159621075376	259
4	2182	129.221034357761	260
4	2186	129.377658282968	261
4	2195	130.588129150875	262
4	2200	131.060653363518	263
4	2204	131.174454587913	264
4	2209	131.659080016908	265
4	2213	131.835218285216	266
4	2219	132.459696954916	267
4	2222	132.479767821588	268
4	2226	132.574349193516	269
4	2229	132.683141281058	270
4	2234	133.111122712128	271
4	2242	133.968756558855	272
4	2250	134.94910545608	273
4	2259	136.283640438111	274
4	2263	136.388222685371	275
4	2268	136.815100491425	276
4	2271	136.838759838763	277
4	2275	136.979640172701	278
4	2278	137.116862424201	279
4	2282	137.14133012002	280
4	2286	137.376265899382	281
4	2293	138.175591900936	282
4	2296	138.178772922151	283
4	2299	138.246207082975	284
4	2305	138.837035273188	285
4	2309	138.962672028848	286
4	2312	139.066568437633	287
4	2317	139.384378821353	288
4	2322	139.862589780963	289
4	2326	139.978879089993	290
4	2332	140.683994943604	291
4	2339	141.428897125292	292
4	2344	141.744116461981	293
4	2348	142.023151178848	294
4	2352	142.302960857826	295
4	2357	142.568155037939	296
4	2360	142.631328333448	297
4	2368	143.57397012682	298
4	2373	144.047182057575	299
4	2381	145.034488672022	300
4	2385	145.146686996899	301
4	2388	145.257319338663	302
4	2392	145.479771113812	303
4	2395	145.48734920332	304
4	2400	145.892561731259	305
4	2405	146.33637808106	306
4	2409	146.388598467841	307
4	2412	146.514791599786	308
4	2421	147.742749510869	309
4	2425	147.748513422522	310
4	2429	147.967427176764	311
4	2432	148.008298031858	312
4	2436	148.247051383303	313
4	2440	148.46414147325	314
4	2444	148.564587818961	315
4	2447	148.615970441581	316
4	2450	148.678502578883	317
4	2454	148.771320293822	318
4	2459	149.317441130744	319
4	2465	149.864124834049	320
4	2472	150.628060541527	321
4	2476	150.871353604409	322
4	2480	151.104166173655	323
4	2484	151.152360182488	324
4	2487	151.273073186536	325
4	2491	151.370066770907	326
4	2494	151.410948184407	327
4	2502	152.476044642512	328
4	2505	152.501502723317	329
4	2508	152.504673155195	330
4	2512	152.561191938956	331
4	2517	152.971937677495	332
4	2526	154.208373278086	333
4	2531	154.622248205232	334
4	2537	155.240550302377	335
4	2542	155.696638245547	336
4	2546	155.851648056291	337
4	2551	156.196893531361	338
4	2555	156.422187265217	339
4	2561	157.0361573841	340
4	2565	157.334048112292	341
4	2572	158.024093533066	342
4	2576	158.356832448168	343
4	2582	158.773153991685	344
4	2588	159.403650143764	345
4	2591	159.482854770587	346
4	2594	159.52952821172	347
4	2600	160.047777827415	348
4	2604	160.288063790312	349
4	2608	160.422091847502	350
4	2612	160.744769890149	351
4	2619	161.481510986866	352
4	2627	162.459320428665	353
4	2632	162.797063968124	354
4	2640	163.827965015833	355
4	2643	163.863614510136	356
4	2647	164.124384980854	357
4	2655	165.091817755892	358
4	2658	165.139000962608	359
4	2663	165.387298759466	360
4	2668	165.871551056059	361
4	2677	167.01675745631	362
4	2681	167.298353588089	363
4	2684	167.314887557663	364
4	2687	167.359531565851	365
4	2691	167.405002889628	366
4	2698	168.25976514105	367
4	2704	168.82354054023	368
4	2707	168.851337263316	369
4	2710	168.868407408278	370
4	2714	169.097816283934	371
4	2718	169.338089539787	372
4	2724	169.80880575553	373
4	2730	170.486120205415	374
4	2734	170.584841173116	375
4	2738	170.802179142376	376
4	2741	170.858619000276	377
4	2744	170.942887224395	378
4	2751	171.648923954937	379
4	2758	172.390575197793	380
4	2762	172.713125512117	381
4	2765	172.758503341327	382
4	2769	172.860193065171	383
4	2773	172.996074455935	384
4	2777	173.32584931017	385
4	2781	173.423682396274	386
4	2787	174.123967256089	387
4	2792	174.373615168716	388
4	2799	175.306767863598	389
4	2803	175.460791979602	390
4	2808	175.856153531175	391
4	2816	176.815326004806	392
4	2822	177.447836871123	393
4	2828	178.063852692069	394
4	2833	178.542995101944	395
4	2839	179.032326251262	396
4	2843	179.247223707354	397
4	2846	179.307507959945	398
4	2850	179.419444195095	399
4	2855	179.797960024714	400
4	2859	180.115040910258	401
4	2866	180.877895637426	402
4	2874	181.913252434891	403
4	2882	182.942844457286	404
4	2887	183.299097324286	405
4	2892	183.733230373983	406
4	2896	183.97744950655	407
4	2900	184.097340289001	408
4	2905	184.432972113208	409
4	2908	184.562599721327	410
4	2913	184.787638718844	411
4	2918	185.191306063498	412
4	2921	185.312474835585	413
4	2927	185.828005602427	414
4	2930	185.861442581021	415
4	2934	186.007318081689	416
4	2942	187.093994799672	417
4	2947	187.547229821973	418
4	2951	187.651540846162	419
4	2955	187.934028502319	420
4	2958	187.939455048798	421
4	2965	188.646795098448	422
4	2969	188.865385119174	423
4	2974	189.325302803464	424
4	2977	189.352556016448	425
4	2985	190.316184358037	426
4	2990	190.611920439295	427
4	2993	190.663026343556	428
4	2997	190.858293003225	429