version 3
run FeedbackVersion-18-20240511-20:45:11-11876
attr configname FeedbackVersion
attr datetime 20240511-20:45:11
attr datetimef 20240511-204511
attr experiment FeedbackVersion
attr inifile omnetpp.ini
attr iterationvars $genInterval=1
attr iterationvarsd genInterval=1
attr iterationvarsf genInterval=1-
attr measurement $genInterval=1
attr network NetworkFV
attr processid 11876
attr repetition 0
attr replication #0
attr resultdir results
attr runnumber 18
attr seedset 18
itervar genInterval 1
config network NetworkFV
config sim-time-limit 200s
config NetworkFV.nodeTx.gen.generationInterval exponential(1)
config NetworkFV.nodeTx.gen.packetByteSize 12500
config NetworkFV.queueOne.bufferSize 200
config NetworkFV.nodeRx.queue.bufferSize 200
config NetworkFV.nodeTx.queue.bufferSize 2000000
config NetworkFV.queueZero.bufferSize 200

vector 0 NetworkFV.nodeRx.queue PacketsLost ETV
vector 1 NetworkFV.nodeRx.queue PacketsAsked ETV
vector 2 NetworkFV.queueOne bufferSize ETV
vector 3 NetworkFV.nodeTx.gen packetGen ETV
vector 4 NetworkFV.nodeTx.queue BufferSize ETV
vector 5 NetworkFV.nodeTx.queue PacketsSent ETV
vector 6 NetworkFV.queueZero bufferSize ETV
vector 7 NetworkFV.nodeRx.queue BufferSize ETV
vector 8 NetworkFV.nodeRx.sink Delay ETV
vector 9 NetworkFV.nodeRx.sink packetUsed ETV
0	1	0	1
0	6	0.2	1
0	7	0.4	1
0	8	0.6	1
0	9	0.8	1
0	10	1	1
0	19	1.2	1
1	1	0	2
1	19	1.2	1
1	27	1.25109196372	0
2	2	0	1
2	20	1.2	1
2	29	1.25109196372	1
3	11	1.05089196372	1
3	14	1.129946824883	1
3	42	1.834060672312	1
3	47	2.400796351696	1
3	61	4.509472910977	1
3	65	4.789912975802	1
3	69	4.99061060946	1
3	84	7.380665215926	1
3	97	9.292784243635	1
3	101	9.520905665386	1
3	111	10.907745341596	1
3	114	10.919318785571	1
3	123	12.016237513911	1
3	128	12.572917699836	1
3	153	16.987091475029	1
3	161	17.829066270616	1
3	165	18.126083006804	1
3	178	20.020738919878	1
3	181	20.049453176764	1
3	203	23.913280791288	1
3	211	24.923110846198	1
3	216	25.31370505773	1
3	228	27.193066271011	1
3	235	28.002097163697	1
3	245	29.334565003912	1
3	253	30.236762260166	1
3	256	30.25778889083	1
3	260	30.598327007211	1
3	264	30.716663713572	1
3	272	31.726023680856	1
3	277	32.079452102603	1
3	281	32.30704555372	1
3	290	33.468502409031	1
3	294	33.804477515397	1
3	307	35.782273048443	1
3	315	36.755509127746	1
3	319	36.976947082072	1
3	325	37.475157633821	1
3	333	38.545733715142	1
3	340	39.355534662889	1
3	349	40.558360206701	1
3	364	42.919951818346	1
3	369	43.354422243728	1
3	376	44.090454208667	1
3	387	45.6509141026	1
3	403	48.443672719274	1
3	415	50.125939078819	1
3	425	51.462129301926	1
3	429	51.682054641279	1
3	433	51.989555710124	1
3	451	54.974452847391	1
3	457	55.527066809948	1
3	463	56.174476836262	1
3	484	59.711096794168	1
3	492	60.809510150004	1
3	496	61.020348364593	1
3	500	61.257732887128	1
3	507	62.031947645686	1
3	519	63.679743538941	1
3	525	64.347747924333	1
3	530	64.732948923277	1
3	540	66.221730999114	1
3	545	66.569780350906	1
3	554	67.780239262378	1
3	559	68.139658213441	1
3	571	70.011216687684	1
3	583	71.770834688527	1
3	590	72.561489408463	1
3	597	73.36564344243	1
3	602	73.813811850777	1
3	606	74.02660589396	1
3	617	75.63104391856	1
3	627	76.883705468958	1
3	644	79.783913458822	1
3	652	80.805204640749	1
3	659	81.627886013298	1
3	666	82.389748600215	1
3	677	84.020610131802	1
3	684	84.870476415719	1
3	694	86.249443825601	1
3	697	86.261853041501	1
3	701	86.43791318381	1
3	710	87.626137227803	1
3	723	89.646092670997	1
3	730	90.41107793087	1
3	736	91.046337717632	1
3	740	91.12877924144	1
3	759	94.340243115657	1
3	762	94.353974463022	1
3	768	95.046512812446	1
3	773	95.372039422417	1
3	783	96.770263553741	1
3	816	102.716862517922	1
3	823	103.526670252603	1
3	827	103.782337826953	1
3	830	103.845739109292	1
3	834	103.956687827273	1
3	837	104.077469197049	1
3	840	104.093904295964	1
3	847	104.757477180287	1
3	852	105.175461506587	1
3	858	105.809894776097	1
3	869	107.46118677629	1
3	874	107.707230436757	1
3	878	107.952261311635	1
3	881	107.98853150051	1
3	898	110.715840504168	1
3	903	111.168743411128	1
3	928	115.633967045261	1
3	931	115.691004413694	1
3	934	115.702082237473	1
3	944	117.101955663197	1
3	955	118.638620712614	1
3	960	119.041894806744	1
3	969	120.198232446773	1
3	979	121.671653977334	1
3	986	122.396589054722	1
3	992	123.051909689827	1
3	997	123.365406339528	1
3	1002	123.765920986073	1
3	1010	124.858893608768	1
3	1018	125.843615126018	1
3	1029	127.344756876037	1
3	1034	127.902615222211	1
3	1041	128.548241053261	1
3	1045	128.837336904341	1
3	1070	133.242529146249	1
3	1074	133.388248659635	1
3	1080	134.073914664863	1
3	1090	135.505951099574	1
3	1099	136.619236775831	1
3	1114	139.115989602433	1
3	1120	139.678563503964	1
3	1124	139.896620003306	1
3	1129	140.199047238658	1
3	1138	141.377184886793	1
3	1155	144.263101156488	1
3	1161	144.930806410164	1
3	1170	146.092778086181	1
3	1173	146.108247832852	1
3	1182	147.186044470814	1
3	1188	147.80592894933	1
3	1191	147.841938462766	1
3	1198	148.561014463187	1
3	1212	150.927591706651	1
3	1217	151.173857125252	1
3	1222	151.716423397053	1
3	1231	152.804756679212	1
3	1237	153.450912444931	1
3	1244	154.346968127436	1
3	1248	154.492726785898	1
3	1255	155.190032337814	1
3	1260	155.639830064625	1
3	1272	157.366412326464	1
3	1277	157.761180377272	1
3	1281	157.997819444363	1
3	1285	158.158009136515	1
3	1289	158.436411887727	1
3	1300	160.025487031257	1
3	1320	163.536283405653	1
3	1327	164.277029902292	1
3	1335	165.349501967665	1
3	1350	167.595463976644	1
3	1359	168.770903967482	1
3	1369	170.352803179675	1
3	1395	174.79934584492	1
3	1403	175.791851357519	1
3	1412	177.155918947328	1
3	1416	177.225405142621	1
3	1423	178.065745602036	1
3	1434	179.613477203704	1
3	1440	180.27620130825	1
3	1445	180.752506389268	1
3	1450	181.099009454215	1
3	1456	181.735062724347	1
3	1463	182.411467892481	1
3	1466	182.493872449384	1
3	1474	183.407187954143	1
3	1477	183.573734339626	1
3	1493	186.042575651492	1
3	1498	186.516080115342	1
3	1502	186.703358330625	1
3	1507	187.136071454889	1
3	1513	187.665925582513	1
3	1516	187.714596103488	1
3	1532	190.342115062562	1
3	1537	190.61303859618	1
3	1541	190.977083673129	1
3	1546	191.195793251101	1
3	1552	191.823806392366	1
3	1557	192.312300956192	1
3	1564	193.005290466026	1
3	1576	194.799798475917	1
3	1586	196.323470218992	1
3	1597	197.814886398965	1
3	1600	197.82522596454	1
3	1611	199.452493043558	1
4	12	1.05089196372	1
4	15	1.129946824883	1
4	43	1.834060672312	1
4	48	2.400796351696	2
4	62	4.509472910977	3
4	66	4.789912975802	4
4	70	4.99061060946	5
4	85	7.380665215926	6
4	98	9.292784243635	7
4	102	9.520905665386	8
4	112	10.907745341596	9
4	115	10.919318785571	10
4	124	12.016237513911	11
4	129	12.572917699836	12
4	154	16.987091475029	13
4	162	17.829066270616	14
4	166	18.126083006804	15
4	179	20.020738919878	16
4	182	20.049453176764	17
4	204	23.913280791288	18
4	212	24.923110846198	19
4	217	25.31370505773	20
4	229	27.193066271011	21
4	236	28.002097163697	22
4	246	29.334565003912	23
4	254	30.236762260166	24
4	257	30.25778889083	25
4	261	30.598327007211	26
4	265	30.716663713572	27
4	273	31.726023680856	28
4	278	32.079452102603	29
4	282	32.30704555372	30
4	291	33.468502409031	31
4	295	33.804477515397	32
4	308	35.782273048443	33
4	316	36.755509127746	34
4	320	36.976947082072	35
4	326	37.475157633821	36
4	334	38.545733715142	37
4	341	39.355534662889	38
4	350	40.558360206701	39
4	365	42.919951818346	40
4	370	43.354422243728	41
4	377	44.090454208667	42
4	388	45.6509141026	43
4	404	48.443672719274	44
4	416	50.125939078819	45
4	426	51.462129301926	46
4	430	51.682054641279	47
4	434	51.989555710124	48
4	452	54.974452847391	49
4	458	55.527066809948	50
4	464	56.174476836262	51
4	485	59.711096794168	52
4	493	60.809510150004	53
4	497	61.020348364593	54
4	501	61.257732887128	55
4	508	62.031947645686	56
4	520	63.679743538941	57
4	526	64.347747924333	58
4	531	64.732948923277	59
4	541	66.221730999114	60
4	546	66.569780350906	61
4	555	67.780239262378	62
4	560	68.139658213441	63
4	572	70.011216687684	64
4	584	71.770834688527	65
4	591	72.561489408463	66
4	598	73.36564344243	67
4	603	73.813811850777	68
4	607	74.02660589396	69
4	618	75.63104391856	70
4	628	76.883705468958	71
4	645	79.783913458822	72
4	653	80.805204640749	73
4	660	81.627886013298	74
4	667	82.389748600215	75
4	678	84.020610131802	76
4	685	84.870476415719	77
4	695	86.249443825601	78
4	698	86.261853041501	79
4	702	86.43791318381	80
4	711	87.626137227803	81
4	724	89.646092670997	82
4	731	90.41107793087	83
4	737	91.046337717632	84
4	741	91.12877924144	85
4	760	94.340243115657	86
4	763	94.353974463022	87
4	769	95.046512812446	88
4	774	95.372039422417	89
4	784	96.770263553741	90
4	817	102.716862517922	91
4	824	103.526670252603	92
4	828	103.782337826953	93
4	831	103.845739109292	94
4	835	103.956687827273	95
4	838	104.077469197049	96
4	841	104.093904295964	97
4	848	104.757477180287	98
4	853	105.175461506587	99
4	859	105.809894776097	100
4	870	107.46118677629	101
4	875	107.707230436757	102
4	879	107.952261311635	103
4	882	107.98853150051	104
4	899	110.715840504168	105
4	904	111.168743411128	106
4	929	115.633967045261	107
4	932	115.691004413694	108
4	935	115.702082237473	109
4	945	117.101955663197	110
4	956	118.638620712614	111
4	961	119.041894806744	112
4	970	120.198232446773	113
4	980	121.671653977334	114
4	987	122.396589054722	115
4	993	123.051909689827	116
4	998	123.365406339528	117
4	1003	123.765920986073	118
4	1011	124.858893608768	119
4	1019	125.843615126018	120
4	1030	127.344756876037	121
4	1035	127.902615222211	122
4	1042	128.548241053261	123
4	1046	128.837336904341	124
4	1071	133.242529146249	125
4	1075	133.388248659635	126
4	1081	134.073914664863	127
4	1091	135.505951099574	128
4	1100	136.619236775831	129
4	1115	139.115989602433	130
4	1121	139.678563503964	131
4	1125	139.896620003306	132
4	1130	140.199047238658	133
4	1139	141.377184886793	134
4	1156	144.263101156488	135
4	1162	144.930806410164	136
4	1171	146.092778086181	137
4	1174	146.108247832852	138
4	1183	147.186044470814	139
4	1189	147.80592894933	140
4	1192	147.841938462766	141
4	1199	148.561014463187	142
4	1213	150.927591706651	143
4	1218	151.173857125252	144
4	1223	151.716423397053	145
4	1232	152.804756679212	146
4	1238	153.450912444931	147
4	1245	154.346968127436	148
4	1249	154.492726785898	149
4	1256	155.190032337814	150
4	1261	155.639830064625	151
4	1273	157.366412326464	152
4	1278	157.761180377272	153
4	1282	157.997819444363	154
4	1286	158.158009136515	155
4	1290	158.436411887727	156
4	1301	160.025487031257	157
4	1321	163.536283405653	158
4	1328	164.277029902292	159
4	1336	165.349501967665	160
4	1351	167.595463976644	161
4	1360	168.770903967482	162
4	1370	170.352803179675	163
4	1396	174.79934584492	164
4	1404	175.791851357519	165
4	1413	177.155918947328	166
4	1417	177.225405142621	167
4	1424	178.065745602036	168
4	1435	179.613477203704	169
4	1441	180.27620130825	170
4	1446	180.752506389268	171
4	1451	181.099009454215	172
4	1457	181.735062724347	173
4	1464	182.411467892481	174
4	1467	182.493872449384	175
4	1475	183.407187954143	176
4	1478	183.573734339626	177
4	1494	186.042575651492	178
4	1499	186.516080115342	179
4	1503	186.703358330625	180
4	1508	187.136071454889	181
4	1514	187.665925582513	182
4	1517	187.714596103488	183
4	1533	190.342115062562	184
4	1538	190.61303859618	185
4	1542	190.977083673129	186
4	1547	191.195793251101	187
4	1553	191.823806392366	188
4	1558	192.312300956192	189
4	1565	193.005290466026	190
4	1577	194.799798475917	191
4	1587	196.323470218992	192
4	1598	197.814886398965	193
4	1601	197.82522596454	194
4	1612	199.452493043558	195
5	13	1.05089196372	1
5	16	1.15089196372	2
6	17	1.15099196372	1
6	25	1.25099196372	1
7	27	1.25109196372	1
7	34	1.35109196372	1
8	36	1.45109196372	0.4002
8	39	1.65109196372	0.521145138837
9	36	1.45109196372	1
9	39	1.65109196372	1

