version 3
run FeedbackVersion-2-20240511-20:45:11-11876
attr configname FeedbackVersion
attr datetime 20240511-20:45:11
attr datetimef 20240511-204511
attr experiment FeedbackVersion
attr inifile omnetpp.ini
attr iterationvars $genInterval=0.2
attr iterationvarsd genInterval=0.2
attr iterationvarsf genInterval=0.2-
attr measurement $genInterval=0.2
attr network NetworkFV
attr processid 11876
attr repetition 0
attr replication #0
attr resultdir results
attr runnumber 2
attr seedset 2
itervar genInterval 0.2
config network NetworkFV
config sim-time-limit 200s
config NetworkFV.nodeTx.gen.generationInterval exponential(0.2)
config NetworkFV.nodeTx.gen.packetByteSize 12500
config NetworkFV.queueOne.bufferSize 200
config NetworkFV.nodeRx.queue.bufferSize 200
config NetworkFV.nodeTx.queue.bufferSize 2000000
config NetworkFV.queueZero.bufferSize 200

vector 0 NetworkFV.nodeRx.queue PacketsLost ETV
vector 1 NetworkFV.nodeRx.queue PacketsAsked ETV
vector 2 NetworkFV.queueOne bufferSize ETV
vector 3 NetworkFV.nodeTx.gen packetGen ETV
vector 4 NetworkFV.nodeTx.queue BufferSize ETV
vector 5 NetworkFV.nodeTx.queue PacketsSent ETV
vector 6 NetworkFV.queueZero bufferSize ETV
vector 7 NetworkFV.nodeRx.queue BufferSize ETV
vector 8 NetworkFV.nodeRx.sink Delay ETV
vector 9 NetworkFV.nodeRx.sink packetUsed ETV
0	1	0	1
0	13	0.2	1
0	40	0.8004	1
0	57	1.2008	1
0	60	1.401	1
0	69	1.6012	1
0	329	5.6052	1
0	383	6.6062	1
0	386	6.8064	1
0	392	7.0066	1
0	572	9.409	1
0	669	11.0106	1
0	680	11.411	1
0	683	11.6112	1
0	686	11.8114	1
0	695	12.0116	1
0	759	13.2128	1
0	762	13.413	1
0	774	13.6132	1
0	807	14.2138	1
0	818	14.6142	1
0	821	14.8144	1
0	828	15.0146	1
0	834	15.2148	1
0	894	16.2158	1
0	961	17.417	1
0	970	17.6172	1
0	1008	18.418	1
0	1020	18.8184	1
0	1031	19.0186	1
0	1064	19.8194	1
0	1134	20.8204	1
0	1141	21.0206	1
0	1162	21.6212	1
0	1165	21.8214	1
0	1171	22.0216	1
0	1182	22.422	1
0	1195	22.6222	1
0	1203	23.0226	1
0	1209	23.2228	1
0	1237	23.8234	1
0	1289	24.8244	1
0	1306	25.2248	1
0	1309	25.425	1
0	1320	25.6252	1
0	1393	26.8264	1
0	1404	27.2268	1
0	1407	27.427	1
0	1413	27.6272	1
0	1433	28.0276	1
0	1476	28.8284	1
0	1545	29.8294	1
0	1556	30.2298	1
0	1577	30.6302	1
0	1629	31.431	1
0	1677	32.2318	1
0	1757	33.6332	1
0	1824	35.0346	1
0	1827	35.2348	1
0	1840	35.435	1
0	1871	36.0356	1
0	1879	36.2358	1
0	1921	37.2368	1
0	1930	37.437	1
0	1959	38.0376	1
0	1990	38.6382	1
0	2064	40.0396	1
0	2075	40.44	1
0	2078	40.6402	1
0	2087	40.8404	1
0	2142	41.8414	1
0	2240	43.6432	1
0	2282	44.444	1
0	2320	45.2448	1
0	2331	45.6452	1
0	2341	46.0456	1
0	2351	46.2458	1
0	2363	46.6462	1
0	2370	46.8464	1
0	2374	47.0466	1
0	2398	47.6472	1
0	2462	49.0486	1
0	2471	49.2488	1
0	2488	49.6492	1
0	2575	51.0506	1
0	2583	51.2508	1
0	2695	52.8524	1
0	2830	55.2548	1
0	2833	55.455	1
0	2843	55.6552	1
0	3015	58.458	1
0	3129	60.2598	1
0	3325	63.463	1
0	3328	63.6632	1
0	3331	63.8634	1
0	3340	64.0636	1
0	3348	64.464	1
0	3364	64.6642	1
0	3412	65.465	1
0	3453	66.0656	1
0	3472	66.466	1
0	3555	67.6672	1
0	3613	68.6682	1
0	3621	69.0686	1
0	3632	69.2688	1
0	3678	70.0696	1
0	3700	70.6702	1
0	3720	71.0706	1
0	3744	71.6712	1
0	3753	71.8714	1
0	3771	72.2718	1
0	3860	73.8734	1
0	3926	74.8744	1
0	4010	76.476	1
0	4021	76.8764	1
0	4057	77.6772	1
0	4099	78.478	1
0	4107	78.6782	1
0	4186	80.0796	1
0	4233	81.0806	1
0	4255	81.6812	1
0	4264	81.8814	1
0	4287	82.482	1
0	4298	82.6822	1
0	4313	83.0826	1
0	4415	84.6842	1
0	4466	85.485	1
0	4492	85.8854	1
0	4544	86.8864	1
0	4609	88.0876	1
0	4612	88.2878	1
0	4620	88.488	1
0	4659	89.2888	1
0	4667	89.6892	1
0	4676	89.8894	1
0	4717	90.8904	1
0	4720	91.0906	1
0	4729	91.2908	1
0	4828	92.8924	1
0	4926	94.494	1
0	4945	94.8944	1
0	5018	96.2958	1
0	5021	96.496	1
0	5030	96.6962	1
0	5092	97.8974	1
0	5224	100.0996	1
0	5232	100.2998	1
0	5333	101.9014	1
0	5393	102.9024	1
0	5415	103.503	1
0	5421	103.7032	1
0	5478	104.7042	1
0	5609	107.1066	1
0	5612	107.3068	1
0	5615	107.507	1
0	5631	107.7072	1
0	5644	108.1076	1
0	5647	108.3078	1
0	5650	108.508	1
0	5656	108.7082	1
0	5682	109.3088	1
0	5694	109.7092	1
0	5700	109.9094	1
0	5760	111.1106	1
0	5787	111.7112	1
0	5971	114.514	1
0	6073	115.9154	1
0	6085	116.3158	1
0	6100	116.516	1
0	6165	117.7172	1
0	6251	119.1186	1
0	6263	119.3188	1
0	6285	119.7192	1
0	6315	120.3198	1
0	6323	120.7202	1
0	6331	120.9204	1
0	6357	121.521	1
0	6366	121.7212	1
0	6429	122.7222	1
0	6438	122.9224	1
0	6446	123.3228	1
0	6455	123.523	1
0	6469	123.9234	1
0	6506	124.524	1
0	6712	127.7272	1
0	6791	129.1286	1
0	6834	129.9294	1
0	6846	130.1296	1
0	7005	132.9324	1
0	7023	133.3328	1
0	7037	133.7332	1
0	7053	134.1336	1
0	7065	134.534	1
0	7068	134.7342	1
0	7081	134.9344	1
0	7145	136.1356	1
0	7156	136.3358	1
0	7176	136.7362	1
0	7196	137.1366	1
0	7208	137.537	1
0	7221	137.7372	1
0	7286	138.9384	1
0	7299	139.3388	1
0	7325	139.7392	1
0	7450	141.7412	1
0	7482	142.3418	1
0	7495	142.7422	1
0	7504	142.9424	1
0	7567	144.1436	1
0	7594	144.7442	1
0	7747	147.1466	1
0	7782	147.9474	1
0	7803	148.3478	1
0	7834	148.9484	1
0	7913	150.1496	1
0	7974	151.3508	1
0	8173	154.3538	1
0	8200	154.9544	1
0	8219	155.3548	1
0	8239	155.7552	1
0	8277	156.3558	1
0	8297	156.9564	1
0	8304	157.1566	1
0	8307	157.3568	1
0	8310	157.557	1
0	8313	157.7572	1
0	8324	157.9574	1
0	8439	159.7592	1
0	8475	160.3598	1
0	8520	161.1606	1
0	8541	161.7612	1
0	8544	161.9614	1
0	8553	162.1616	1
0	8561	162.562	1
0	8572	162.7622	1
0	8659	164.1636	1
0	8677	164.564	1
0	8699	165.1646	1
0	8710	165.565	1
0	8713	165.7652	1
0	8716	165.9654	1
0	8723	166.1656	1
0	8726	166.3658	1
0	8729	166.566	1
0	8735	166.7662	1
0	8804	167.9674	1
0	8807	168.1676	1
0	8816	168.3678	1
0	8824	168.7682	1
0	8835	168.9684	1
0	8892	169.9694	1
0	8903	170.3698	1
0	8906	170.57	1
0	8909	170.7702	1
0	8921	170.9704	1
0	8937	171.3708	1
0	8993	172.3718	1
0	9099	173.9734	1
0	9220	175.7752	1
0	9246	176.3758	1
0	9252	176.576	1
0	9312	177.577	1
0	9337	178.1776	1
0	9348	178.3778	1
0	9371	178.9784	1
0	9384	179.1786	1
0	9425	179.9794	1
0	9472	180.9804	1
0	9496	181.3808	1
0	9521	181.9814	1
0	9532	182.3818	1
0	9538	182.582	1
0	9549	182.9824	1
0	9555	183.1826	1
0	9698	185.1846	1
0	9727	185.7852	1
0	9738	185.9854	1
0	9780	186.7862	1
0	9788	187.1866	1
0	9791	187.3868	1
0	9802	187.587	1
0	9818	187.9874	1
0	9821	188.1876	1
0	9824	188.3878	1
0	9827	188.588	1
0	9833	188.7882	1
0	10018	191.591	1
0	10049	192.1916	1
0	10057	192.592	1
0	10070	192.7922	1
0	10139	193.9934	1
0	10205	194.9944	1
0	10290	196.3958	1
0	10309	196.9964	1
0	10315	197.1966	1
0	10326	197.597	1
0	10335	197.7972	1
0	10354	198.3978	1
0	10361	198.598	1
0	10370	198.7982	1
0	10414	199.599	1
1	1	0	2
1	24	0.414738397925	2
1	49	0.99722927424	4
1	94	1.947049733555	6
1	151	2.660528180121	9
1	227	3.850783421909	14
1	375	6.389840309045	21
1	558	9.144271509278	31
1	695	12.0116	15
1	821	14.8144	5
1	876	15.816149580353	5
1	929	16.720690860361	7
1	1012	18.492841980079	11
1	1126	20.598718651389	17
1	1182	22.422	9
1	1298	24.965303441377	9
1	1382	26.529835942306	13
1	1476	28.8284	7
1	1531	29.548037251862	7
1	1611	31.149182195561	10
1	1703	32.568161982862	15
1	1863	35.758213898711	23
1	1990	38.6382	12
1	2124	41.472208021219	12
1	2242	43.696904840324	18
1	2363	46.6462	9
1	2473	49.286783815089	9
1	2567	50.734603060714	13
1	2684	52.606567386039	19
1	2853	55.78429605986	29
1	3115	59.951639425635	42
1	3348	64.464	20
1	3544	67.437021145509	19
1	3700	70.6702	10
1	3817	72.983670812055	10
1	3904	74.552278803034	15
1	4067	77.780984925414	22
1	4264	81.8814	11
1	4371	83.875188592144	11
1	4474	85.617012814517	16
1	4645	88.946885995222	25
1	4729	91.2908	13
1	4845	93.123432033618	13
1	4960	95.174384643728	19
1	5162	98.973657841182	28
1	5405	103.15331630657	41
1	5615	107.507	20
1	5682	109.3088	7
1	5767	111.217442764941	7
1	5851	112.803793642711	10
1	5922	113.85650137045	15
1	6059	115.690881794204	23
1	6263	119.3188	11
1	6366	121.7212	3
1	6395	122.03133483188	3
1	6419	122.409485040866	5
1	6493	124.30041727801	8
1	6571	125.567535337458	13
1	6697	127.359005212478	19
1	6864	130.395721614793	28
1	7068	134.7342	14
1	7208	137.537	4
1	7252	138.181413097661	4
1	7309	139.483099594793	7
1	7369	140.435051121972	10
1	7463	142.07760486983	15
1	7633	145.241155910148	23
1	7854	149.19743760294	35
1	8162	154.144063856177	49
1	8297	156.9564	24
1	8439	159.7592	8
1	8502	160.790610383185	8
1	8572	162.7622	4
1	8608	163.177776585011	4
1	8643	163.860423807735	6
1	8716	165.9654	3
1	8762	167.20331180439	3
1	8796	167.762266436611	4
1	8857	169.251562709567	7
1	8937	171.3708	3
1	8974	171.897650387389	3
1	9010	172.615374122892	5
1	9053	173.256072594691	8
1	9132	174.464407426578	12
1	9236	176.071009028844	18
1	9371	178.9784	9
1	9485	181.125694790238	9
1	9555	183.1826	5
1	9604	183.718596728499	4
1	9643	184.216754249629	7
1	9703	185.259595216011	10
1	9802	187.587	5
1	9859	189.186623246885	5
1	9913	189.94571835015	8
1	9979	190.875249741009	12
1	10107	193.481502128876	18
1	10271	195.904323733913	27
1	10354	198.3978	14
2	2	0	1
2	25	0.414738397925	1
2	50	0.99722927424	1
2	95	1.947049733555	1
2	152	2.660528180121	1
2	228	3.850783421909	1
2	376	6.389840309045	1
2	559	9.144271509278	1
2	696	12.0116	1
2	822	14.8144	1
2	877	15.816149580353	1
2	930	16.720690860361	1
2	1013	18.492841980079	1
2	1127	20.598718651389	1
2	1183	22.422	1
2	1299	24.965303441377	1
2	1383	26.529835942306	1
2	1477	28.8284	1
2	1532	29.548037251862	1
2	1612	31.149182195561	1
2	1704	32.568161982862	1
2	1864	35.758213898711	1
2	1991	38.6382	1
2	2125	41.472208021219	1
2	2243	43.696904840324	1
2	2364	46.6462	1
2	2475	49.286783815089	1
2	2568	50.734603060714	1
2	2685	52.606567386039	1
2	2854	55.78429605986	1
2	3116	59.951639425635	1
2	3349	64.464	1
2	3545	67.437021145509	1
2	3701	70.6702	1
2	3818	72.983670812055	1
2	3905	74.552278803034	1
2	4068	77.780984925414	1
2	4265	81.8814	1
2	4372	83.875188592144	1
2	4475	85.617012814517	1
2	4646	88.946885995222	1
2	4730	91.2908	1
2	4846	93.123432033618	1
2	4961	95.174384643728	1
2	5163	98.973657841182	1
2	5406	103.15331630657	1
2	5616	107.507	1
2	5683	109.3088	1
2	5768	111.217442764941	1
2	5852	112.803793642711	1
2	5923	113.85650137045	1
2	6060	115.690881794204	1
2	6264	119.3188	1
2	6367	121.7212	1
2	6396	122.03133483188	1
2	6420	122.409485040866	1
2	6494	124.30041727801	1
2	6572	125.567535337458	1
2	6698	127.359005212478	1
2	6865	130.395721614793	1
2	7069	134.7342	1
2	7209	137.537	1
2	7253	138.181413097661	1
2	7310	139.483099594793	1
2	7370	140.435051121972	1
2	7464	142.07760486983	1
2	7634	145.241155910148	1
2	7855	149.19743760294	1
2	8163	154.144063856177	1
2	8298	156.9564	1
2	8440	159.7592	1
2	8503	160.790610383185	1
2	8573	162.7622	1
2	8609	163.177776585011	1
2	8644	163.860423807735	1
2	8717	165.9654	1
2	8763	167.20331180439	1
2	8797	167.762266436611	1
2	8858	169.251562709567	1
2	8938	171.3708	1
2	8975	171.897650387389	1
2	9011	172.615374122892	1
2	9054	173.256072594691	1
2	9133	174.464407426578	1
2	9237	176.071009028844	1
2	9372	178.9784	1
2	9486	181.125694790238	1
2	9556	183.1826	1
2	9605	183.718596728499	1
2	9644	184.216754249629	1
2	9704	185.259595216011	1
2	9803	187.587	1
2	9860	189.186623246885	1
2	9914	189.94571835015	1
2	9980	190.875249741009	1
2	10108	193.481502128876	1
2	10272	195.904323733913	1
2	10355	198.3978	1
3	6	0.114538397925	1
3	9	0.15547197478	1
3	11	0.160725622149	1
3	32	0.69702927424	1
3	41	0.85658085902	1
3	61	1.446849733555	1
3	67	1.56114979718	1
3	75	1.693770058208	1
3	82	1.802842361652	1
3	90	1.880132695456	1
3	99	1.960328180121	1
3	102	1.993876258359	1
3	105	2.039670517305	1
3	123	2.27970830462	1
3	136	2.472841777648	1
3	138	2.498397212233	1
3	144	2.569633561714	1
3	156	2.702419565487	1
3	159	2.764494358611	1
3	171	2.964830169755	1
3	184	3.158944621383	1
3	204	3.499943640207	1
3	215	3.650583421909	1
3	232	3.880370524256	1
3	235	3.90927857908	1
3	243	4.047333308752	1
3	253	4.191469101016	1
3	264	4.368232347101	1
3	270	4.409008370493	1
3	284	4.663426033318	1
3	297	4.971161491871	1
3	301	5.03097699788	1
3	318	5.415772884114	1
3	326	5.573795849995	1
3	337	5.710133206656	1
3	346	5.814749231701	1
3	361	6.189640309045	1
3	365	6.228596388112	1
3	367	6.245195653213	1
3	389	6.944071509278	1
3	398	7.084810467119	1
3	404	7.155295367916	1
3	406	7.168798411447	1
3	409	7.236697040012	1
3	421	7.348463075238	1
3	423	7.373166461457	1
3	425	7.393469140195	1
3	428	7.433581000757	1
3	436	7.460781597482	1
3	442	7.597139885006	1
3	455	7.778777270334	1
3	468	7.945611213717	1
3	470	7.996850996407	1
3	477	8.047014378372	1
3	481	8.06963595367	1
3	498	8.36140137449	1
3	501	8.411172176191	1
3	513	8.58339450889	1
3	522	8.669497648598	1
3	524	8.706239748247	1
3	531	8.83238222931	1
3	539	8.923988187905	1
3	545	8.969053180419	1
3	554	9.095528925266	1
3	566	9.30008526162	1
3	579	9.512502484105	1
3	586	9.644471981036	1
3	605	9.959566005198	1
3	618	10.100301174566	1
3	631	10.317872321556	1
3	638	10.415715368928	1
3	650	10.605596832298	1
3	666	10.921220975991	1
3	689	11.860064909484	1
3	700	12.033567014881	1
3	705	12.059016632358	1
3	709	12.094435346442	1
3	711	12.126601718384	1
3	727	12.367898471559	1
3	745	12.750387208039	1
3	763	13.418319719661	1
3	771	13.560796272331	1
3	782	13.699429054061	1
3	785	13.748422527581	1
3	804	14.189006788557	1
3	831	15.189132650318	1
3	837	15.272725324637	1
3	842	15.348479487453	1
3	855	15.515949580353	1
3	858	15.575828505441	1
3	868	15.687393072177	1
3	884	16.018673071187	1
3	892	16.133478438999	1
3	899	16.22076911568	1
3	916	16.520490860361	1
3	923	16.64665401336	1
3	934	16.800057617898	1
3	940	16.864146404648	1
3	964	17.478851537593	1
3	975	17.798947557242	1
3	984	17.956091368242	1
3	1000	18.292641980079	1
3	1003	18.309774238733	1
3	1023	18.901424635715	1
3	1026	18.992673941087	1
3	1047	19.338864736977	1
3	1061	19.719425963769	1
3	1070	19.86420461942	1
3	1078	19.968472441597	1
3	1081	20.018420814404	1
3	1084	20.023936654421	1
3	1104	20.298518651389	1
3	1107	20.355303742053	1
3	1117	20.46826782324	1
3	1119	20.48216878838	1
3	1137	20.920563211166	1
3	1168	21.93888924218	1
3	1189	22.505589148907	1
3	1206	23.210807401393	1
3	1215	23.350645381586	1
3	1231	23.672791481638	1
3	1242	23.914952054823	1
3	1251	24.099120830404	1
3	1264	24.344324981885	1
3	1276	24.633924778554	1
3	1284	24.765103441377	1
3	1287	24.80218280446	1
3	1312	25.447532803154	1
3	1315	25.516884297978	1
3	1321	25.627917323808	1
3	1333	25.776412910837	1
3	1342	25.854392556584	1
3	1344	25.942597837071	1
3	1362	26.229635942306	1
3	1365	26.23898697221	1
3	1390	26.778493792566	1
3	1410	27.595215574836	1
3	1422	27.843631689264	1
3	1430	27.960079873881	1
3	1441	28.105806047531	1
3	1450	28.246042095029	1
3	1468	28.677689872083	1
3	1471	28.755866653631	1
3	1487	28.917189791712	1
3	1490	28.977341836083	1
3	1504	29.147837251862	1
3	1510	29.245679396786	1
3	1517	29.345832440512	1
3	1539	29.702610820427	1
3	1553	30.224832042239	1
3	1567	30.491760034912	1
3	1570	30.492872004589	1
3	1572	30.58822467084	1
3	1591	30.848982195561	1
3	1594	30.851602756775	1
3	1598	30.93953756766	1
3	1619	31.258846785212	1
3	1622	31.306735226883	1
3	1627	31.369509994182	1
3	1636	31.459401984934	1
3	1643	31.634184721056	1
3	1667	32.055424451287	1
3	1670	32.060601059226	1
3	1672	32.150900530756	1
3	1688	32.367961982862	1
3	1699	32.50787831721	1
3	1708	32.605927234423	1
3	1724	32.89769014539	1
3	1733	33.035152511339	1
3	1751	33.52694315819	1
3	1758	33.634139653392	1
3	1773	33.984303092362	1
3	1779	34.070728133271	1
3	1784	34.176847573414	1
3	1797	34.336984209951	1
3	1808	34.536290673886	1
3	1830	35.258013898711	1
3	1833	35.341697102365	1
3	1838	35.365628709361	1
3	1847	35.461782725693	1
3	1849	35.536942198603	1
3	1874	36.19340958722	1
3	1877	36.201948859492	1
3	1889	36.410214364026	1
3	1905	36.678401908401	1
3	1924	37.311685491237	1
3	1935	37.525989447021	1
3	1949	37.851359299073	1
3	1952	37.899680829767	1
3	1957	37.95179435631	1
3	1966	38.059623408465	1
3	1984	38.482350568723	1
3	1999	38.688826694538	1
3	2008	38.86836777888	1
3	2021	39.085002982291	1
3	2032	39.393519877343	1
3	2035	39.430900797626	1
3	2043	39.582819930606	1
3	2061	40.009645486039	1
3	2081	40.699873733666	1
3	2091	41.00089666264	1
3	2100	41.172008021219	1
3	2103	41.200771520949	1
3	2112	41.330346409994	1
3	2134	41.736730759263	1
3	2143	41.846069120633	1
3	2156	42.122352677418	1
3	2165	42.305101459242	1
3	2180	42.625579674372	1
3	2184	42.648117699772	1
3	2191	42.804883221121	1
3	2199	42.89684875054	1
3	2205	42.946755988383	1
3	2207	42.995375857782	1
3	2232	43.496704840324	1
3	2249	43.825936776937	1
3	2256	44.005275859446	1
3	2272	44.325391899648	1
3	2275	44.410394254519	1
3	2287	44.572123582704	1
3	2294	44.633368440747	1
3	2312	45.084405216923	1
3	2326	45.57489034433	1
3	2342	46.104299900024	1
3	2348	46.213154135246	1
3	2371	46.973191353917	1
3	2378	47.128580394369	1
3	2395	47.628102730248	1
3	2402	47.815627139661	1
3	2405	47.823793879214	1
3	2423	48.173821238639	1
3	2436	48.437789638845	1
3	2445	48.633190650618	1
3	2463	49.086583815089	1
3	2466	49.125473694125	1
3	2482	49.489296392139	1
3	2489	49.66823030273	1
3	2500	49.822000103262	1
3	2511	49.956381443355	1
3	2516	50.033902134708	1
3	2528	50.192675952636	1
3	2539	50.293927829709	1
3	2552	50.534403060714	1
3	2555	50.599393806984	1
3	2561	50.655816305562	1
3	2578	51.206367386039	1
3	2581	51.247680517458	1
3	2589	51.372308722291	1
3	2591	51.395746572508	1
3	2615	51.778246042068	1
3	2621	51.842303419809	1
3	2626	51.890149716735	1
3	2628	51.892210303672	1
3	2630	51.892235022035	1
3	2643	52.09073968206	1
3	2649	52.110239375031	1
3	2651	52.180199757311	1
3	2657	52.21870235336	1
3	2660	52.260177690232	1
3	2668	52.404840900873	1
3	2674	52.424868635446	1
3	2692	52.848905261922	1
3	2698	52.915652085353	1
3	2714	53.22288206903	1
3	2721	53.27127711618	1
3	2729	53.422205552125	1
3	2736	53.489469046899	1
3	2744	53.553465440673	1
3	2751	53.680973826088	1
3	2753	53.686321516835	1
3	2761	53.845799544929	1
3	2789	54.253395937147	1
3	2807	54.626407984492	1
3	2813	54.690845536008	1
3	2836	55.58409605986	1
3	2839	55.61547603422	1
3	2841	55.625496537354	1
3	2849	55.766302427062	1
3	2858	55.819126332898	1
3	2864	55.90074845304	1
3	2876	56.106926897647	1
3	2882	56.142201657496	1
3	2884	56.177421822684	1
3	2890	56.226932119129	1
3	2914	56.635200861936	1
3	2932	56.997410912675	1
3	2935	57.046438245625	1
3	2952	57.301280124008	1
3	2963	57.572049464783	1
3	2966	57.582621672512	1
3	2978	57.794319593717	1
3	2989	57.989566138003	1
3	3005	58.31034232846	1
3	3008	58.377792226663	1
3	3010	58.38414146286	1
3	3031	58.719237724323	1
3	3034	58.771400065648	1
3	3046	58.929275611809	1
3	3059	59.173179213375	1
3	3062	59.176867012207	1
3	3064	59.195194152009	1
3	3066	59.198442441269	1
3	3068	59.204655861538	1
3	3098	59.751439425635	1
3	3103	59.839803511361	1
3	3111	59.938854894206	1
3	3123	60.117068200687	1
3	3145	60.600119357504	1
3	3148	60.61084650662	1
3	3165	60.95321304545	1
3	3168	60.966796807333	1
3	3170	60.985740361554	1
3	3172	60.994635507795	1
3	3178	61.083343779103	1
3	3186	61.183898987429	1
3	3188	61.187732519333	1
3	3201	61.408514005627	1
3	3210	61.528091123163	1
3	3216	61.572227219134	1
3	3218	61.578395003286	1
3	3242	61.99631997382	1
3	3248	62.05935912423	1
3	3257	62.172622950384	1
3	3259	62.173140133403	1
3	3272	62.366468323102	1
3	3279	62.480210800826	1
3	3283	62.548829108834	1
3	3296	62.725775022858	1
3	3309	62.916809699952	1
3	3332	63.882079061863	1
3	3355	64.496428859606	1
3	3361	64.610799217683	1
3	3372	64.729645995559	1
3	3377	64.819663415212	1
3	3383	64.866062395687	1
3	3401	65.278976670396	1
3	3409	65.389781513813	1
3	3420	65.522520070678	1
3	3428	65.640124143697	1
3	3444	65.912531950646	1
3	3450	66.054231828715	1
3	3466	66.334863747265	1
3	3473	66.484060818603	1
3	3480	66.562279554075	1
3	3482	66.57095067578	1
3	3498	66.836821145509	1
3	3502	66.872746764906	1
3	3508	66.913804970954	1
3	3513	67.033454998922	1
3	3519	67.061788855317	1
3	3535	67.307969408143	1
3	3537	67.309973799832	1
3	3552	67.610618472986	1
3	3558	67.703993316757	1
3	3574	68.004202419704	1
3	3576	68.006374354937	1
3	3589	68.146118390149	1
3	3607	68.523502165948	1
3	3624	69.151642665778	1
3	3627	69.207365141514	1
3	3633	69.288020754949	1
3	3648	69.515924646161	1
3	3656	69.647271557351	1
3	3670	69.873378695398	1
3	3683	70.149340978427	1
3	3697	70.583349768606	1
3	3715	70.973509508534	1
3	3718	71.006854041402	1
3	3726	71.113898215614	1
3	3747	71.700239955955	1
3	3759	72.077917624745	1
3	3764	72.147473049619	1
3	3769	72.265075926599	1
3	3787	72.531892632521	1
3	3798	72.783470812055	1
3	3807	72.912547643047	1
3	3810	72.914244493973	1
3	3812	72.950277385163	1
3	3814	72.955382268682	1
3	3839	73.306799798021	1
3	3857	73.870989259844	1
3	3866	74.026163673755	1
3	3869	74.047711442085	1
3	3879	74.135155985845	1
3	3892	74.352078803034	1
3	3912	74.721107920575	1
3	3915	74.787715996194	1
3	3917	74.794180323997	1
3	3922	74.839019732303	1
3	3924	74.853047417601	1
3	3933	74.951361255186	1
3	3946	75.149230993241	1
3	3968	75.669703253374	1
3	3979	75.871243887264	1
3	3988	76.040165480815	1
3	4004	76.333872082221	1
3	4018	76.830968523428	1
3	4027	76.947428776199	1
3	4040	77.189738555813	1
3	4054	77.580784925414	1
3	4063	77.719901536445	1
3	4072	77.816045732294	1
3	4081	77.957124840855	1
3	4102	78.626356794177	1
3	4105	78.675746930992	1
3	4122	78.978847093947	1
3	4125	78.97978197972	1
3	4133	79.090798358442	1
3	4139	79.198999059863	1
3	4146	79.283958662665	1
3	4154	79.44969528609	1
3	4167	79.604645973064	1
3	4183	80.023049014606	1
3	4192	80.135899183632	1
3	4205	80.362282232758	1
3	4216	80.667515871252	1
3	4230	81.03696993997	1
3	4241	81.257089091058	1
3	4258	81.778263501211	1
3	4273	82.014196868138	1
3	4290	82.580633629165	1
3	4293	82.664903720693	1
3	4310	83.003488446037	1
3	4319	83.174988592144	1
3	4322	83.203161862266	1
3	4332	83.311730862941	1
3	4338	83.396853208208	1
3	4340	83.411066323334	1
3	4342	83.457832033589	1
3	4348	83.478360004392	1
3	4376	83.882415805737	1
3	4382	83.933729028447	1
3	4398	84.248090236364	1
3	4412	84.642786332968	1
3	4418	84.728635964661	1
3	4423	84.794575807089	1
3	4436	84.962970468453	1
3	4439	84.989726711916	1
3	4458	85.316812814517	1
3	4461	85.332245361404	1
3	4482	85.690390853396	1
3	4485	85.769250273953	1
3	4490	85.815332673931	1
3	4508	86.098275259696	1
3	4519	86.360646411135	1
3	4525	86.465901837112	1
3	4541	86.791233062371	1
3	4552	87.073760962699	1
3	4555	87.082578308983	1
3	4560	87.145569165232	1
3	4562	87.168244880166	1
3	4585	87.570497174682	1
3	4593	87.684712696832	1
3	4615	88.414639569424	1
3	4618	88.464557922613	1
3	4635	88.746685995222	1
3	4653	89.171778168069	1
3	4670	89.760874770379	1
3	4681	90.01524484665	1
3	4684	90.055737810242	1
3	4699	90.305397503194	1
3	4721	91.178704641119	1
3	4736	91.472517834891	1
3	4739	91.480769708533	1
3	4744	91.561088339797	1
3	4749	91.66166447979	1
3	4758	91.713576784119	1
3	4771	91.896109438719	1
3	4784	92.092993356585	1
3	4787	92.125611637513	1
3	4794	92.232662368501	1
3	4796	92.271001719533	1
3	4821	92.823232033618	1
3	4824	92.855424609075	1
3	4836	93.061121979142	1
3	4839	93.063787063973	1
3	4853	93.16163262139	1
3	4855	93.161941006093	1
3	4875	93.548310440149	1
3	4878	93.556739413357	1
3	4885	93.652602408398	1
3	4894	93.763501925632	1
3	4896	93.80278030007	1
3	4921	94.469844806961	1
3	4935	94.774184643728	1
3	4938	94.814531110753	1
3	4946	94.942341936171	1
3	4965	95.215670293401	1
3	4968	95.275750929877	1
3	4976	95.358752005628	1
3	4989	95.594542521631	1
3	5002	95.805132030947	1
3	5022	96.592447203078	1
3	5033	96.797398728676	1
3	5036	96.853938587772	1
3	5044	96.904427988422	1
3	5059	97.216789861912	1
3	5072	97.494251447363	1
3	5084	97.78163028789	1
3	5093	97.902686234103	1
3	5096	97.928261952306	1
3	5098	97.966892679499	1
3	5121	98.33204190205	1
3	5124	98.39091993485	1
3	5132	98.514802240105	1
3	5147	98.773457841182	1
3	5150	98.800342802212	1
3	5158	98.89952175211	1
3	5167	99.053244000393	1
3	5173	99.150986213271	1
3	5178	99.221327319178	1
3	5195	99.486695047691	1
3	5200	99.52534506441	1
3	5225	100.251854841056	1
3	5228	100.268365617133	1
3	5233	100.323869066557	1
3	5238	100.368222739873	1
3	5240	100.414513020897	1
3	5249	100.526792511291	1
3	5255	100.637264226043	1
3	5268	100.842603552606	1
3	5287	101.095726970532	1
3	5291	101.114013928442	1
3	5309	101.495680145899	1
3	5321	101.747246718349	1
3	5324	101.833626053314	1
3	5329	101.855086268724	1
3	5334	101.945375925298	1
3	5340	101.983995586867	1
3	5346	102.065978476496	1
3	5362	102.315857300222	1
3	5368	102.420092579224	1
3	5386	102.85311630657	1
3	5389	102.865556845442	1
3	5416	103.682099741176	1
3	5422	103.709686786807	1
3	5434	103.921319262199	1
3	5442	104.067499469178	1
3	5453	104.197416018077	1
3	5469	104.627426056449	1
3	5472	104.645802531365	1
3	5474	104.681469857554	1
3	5486	104.845189623405	1
3	5502	105.105626550413	1
3	5507	105.145597478864	1
3	5509	105.194753884991	1
3	5521	105.339228739674	1
3	5538	105.699549315823	1
3	5545	105.887323136676	1
3	5553	105.908545442282	1
3	5567	106.26675237886	1
3	5573	106.357729164766	1
3	5578	106.435967827362	1
3	5591	106.613847501247	1
3	5620	107.513327728903	1
3	5626	107.640565820141	1
3	5653	108.698249627425	1
3	5657	108.789355112011	1
3	5674	109.139268535051	1
3	5695	109.844265550689	1
3	5706	110.081199313537	1
3	5715	110.233221267557	1
3	5730	110.497824942255	1
3	5737	110.600923889704	1
3	5753	111.017242764941	1
3	5756	111.025666905579	1
3	5780	111.6309470685	1
3	5785	111.696622094014	1
3	5800	112.079086316832	1
3	5813	112.298741245476	1
3	5824	112.503593642711	1
3	5827	112.507334326111	1
3	5830	112.522602224094	1
3	5832	112.569251511134	1
3	5844	112.764557727134	1
3	5846	112.769153443361	1
3	5856	112.85630137045	1
3	5859	112.867296155945	1
3	5863	112.90330784932	1
3	5871	113.016481493306	1
3	5899	113.463777650518	1
3	5904	113.531559442321	1
3	5927	113.880028184379	1
3	5933	113.933967073732	1
3	5942	114.083546224185	1
3	5958	114.343223652954	1
3	5964	114.467742481254	1
3	5969	114.513429618913	1
3	5977	114.647824714678	1
3	5985	114.692427471875	1
3	5988	114.75284318458	1
3	6005	114.987635422398	1
3	6015	115.090681794204	1
3	6019	115.148103491732	1
3	6026	115.262881386515	1
3	6034	115.293743745337	1
3	6036	115.296777871079	1
3	6039	115.324924575133	1
3	6065	115.771734012651	1
3	6086	116.350581816255	1
3	6089	116.356498336771	1
3	6091	116.404719844862	1
3	6098	116.49804742769	1
3	6112	116.725572993825	1
3	6114	116.745730152393	1
3	6124	116.874180249982	1
3	6129	116.91805147733	1
3	6139	117.08892432405	1
3	6160	117.659842451296	1
3	6169	117.767520595593	1
3	6174	117.860331642024	1
3	6179	117.888912514226	1
3	6195	118.150040399216	1
3	6200	118.230332099413	1
3	6205	118.257303721372	1
3	6207	118.288498965287	1
3	6212	118.346377783628	1
3	6235	118.708864358747	1
3	6252	119.134986571331	1
3	6258	119.241538332787	1
3	6280	119.708758759514	1
3	6283	119.714805605868	1
3	6286	119.782638650241	1
3	6307	120.162636577708	1
3	6324	120.845572947005	1
3	6329	120.897987667663	1
3	6341	121.118571578668	1
3	6358	121.591299054672	1
3	6371	121.73113483188	1
3	6376	121.806040897592	1
3	6383	121.901004710079	1
3	6390	122.026977854147	1
3	6402	122.109285040866	1
3	6430	122.751595558911	1
3	6447	123.358950998945	1
3	6461	123.763818176558	1
3	6472	124.00021727801	1
3	6475	124.049598752064	1
3	6487	124.202356332045	1
3	6499	124.44636373464	1
3	6502	124.455256478976	1
3	6510	124.574247786268	1
3	6512	124.631132165087	1
3	6518	124.650097180264	1
3	6547	125.223637909585	1
3	6556	125.367335337458	1
3	6567	125.530109320476	1
3	6576	125.609273204697	1
3	6581	125.697756572249	1
3	6602	126.098690697007	1
3	6605	126.100589759232	1
3	6618	126.374311152861	1
3	6623	126.432796018242	1
3	6630	126.523705882026	1
3	6637	126.582372601859	1
3	6650	126.858805212478	1
3	6657	126.896236384029	1
3	6663	127.037593066087	1
3	6671	127.122210956763	1
3	6678	127.222189485796	1
3	6684	127.267481558322	1
3	6689	127.325885675393	1
3	6693	127.338879058935	1
3	6705	127.671840859671	1
3	6710	127.692460229647	1
3	6727	127.986251292917	1
3	6735	128.123575993158	1
3	6753	128.441224101725	1
3	6755	128.455665263568	1
3	6763	128.494454316278	1
3	6786	129.041600972323	1
3	6795	129.226940328542	1
3	6800	129.273099287146	1
3	6808	129.355829582947	1
3	6814	129.480633055509	1
3	6835	129.988406312111	1
3	6843	130.095521614793	1
3	6847	130.179405822587	1
3	6854	130.248281061591	1
3	6869	130.457548765732	1
3	6875	130.535721762529	1
3	6880	130.580941512014	1
3	6882	130.628490838735	1
3	6908	131.081943634967	1
3	6914	131.147718985525	1
3	6928	131.485162410488	1
3	6933	131.510072217194	1
3	6948	131.862770961128	1
3	6961	132.096525477633	1
3	6972	132.307855965467	1
3	6983	132.514716703716	1
3	6995	132.81245958085	1
3	6998	132.887116114803	1
3	7015	133.143064555462	1
3	7029	133.567616137498	1
3	7043	133.95552539733	1
3	7046	134.053199890281	1
3	7073	134.803730413631	1
3	7082	134.992611518519	1
3	7092	135.128818967608	1
3	7101	135.276937734893	1
3	7109	135.353637065336	1
3	7114	135.432262414307	1
3	7127	135.643082288898	1
3	7146	136.174336403482	1
3	7149	136.195400715859	1
3	7166	136.572440855652	1
3	7169	136.572817742066	1
3	7186	136.940742675973	1
3	7189	136.951400501778	1
3	7213	137.568482169542	1
3	7224	137.781213097661	1
3	7227	137.781710199404	1
3	7235	137.97190290512	1
3	7247	138.107404565357	1
3	7257	138.261998128273	1
3	7278	138.817842228007	1
3	7292	139.282899594793	1
3	7297	139.311772251636	1
3	7300	139.379108458636	1
3	7305	139.435314411715	1
3	7317	139.634851121972	1
3	7326	139.775515646144	1
3	7334	139.905985928689	1
3	7347	140.13288865197	1
3	7365	140.357442667633	1
3	7374	140.438363749395	1
3	7383	140.569427398807	1
3	7389	140.642589183463	1
3	7391	140.677525805556	1
3	7411	140.976567301108	1
3	7414	140.98292777773	1
3	7416	140.989608926483	1
3	7442	141.569237843317	1
3	7453	141.87740486983	1
3	7471	142.175667255438	1
3	7477	142.28757951119	1
3	7496	142.831411314041	1
3	7505	143.029727058546	1
3	7510	143.082436200256	1
3	7524	143.326933509995	1
3	7530	143.348031853175	1
3	7532	143.368763939733	1
3	7544	143.623511881835	1
3	7564	144.09187306225	1
3	7575	144.340153093905	1
3	7587	144.685698836809	1
3	7592	144.741627108406	1
3	7598	144.835749929982	1
3	7611	145.040955910148	1
3	7614	145.084287418457	1
3	7620	145.128416725472	1
3	7625	145.141389601008	1
3	7629	145.186493751597	1
3	7638	145.260303684094	1
3	7664	145.735462693887	1
3	7680	145.985251119541	1
3	7689	146.158690992272	1