version 3
run FeedbackVersion-16-20240511-20:45:11-11876
attr configname FeedbackVersion
attr datetime 20240511-20:45:11
attr datetimef 20240511-204511
attr experiment FeedbackVersion
attr inifile omnetpp.ini
attr iterationvars $genInterval=0.9
attr iterationvarsd genInterval=0.9
attr iterationvarsf genInterval=0.9-
attr measurement $genInterval=0.9
attr network NetworkFV
attr processid 11876
attr repetition 0
attr replication #0
attr resultdir results
attr runnumber 16
attr seedset 16
itervar genInterval 0.9
config network NetworkFV
config sim-time-limit 200s
config NetworkFV.nodeTx.gen.generationInterval exponential(0.9)
config NetworkFV.nodeTx.gen.packetByteSize 12500
config NetworkFV.queueOne.bufferSize 200
config NetworkFV.nodeRx.queue.bufferSize 200
config NetworkFV.nodeTx.queue.bufferSize 2000000
config NetworkFV.queueZero.bufferSize 200

vector 0 NetworkFV.nodeRx.queue PacketsLost ETV
vector 1 NetworkFV.nodeRx.queue PacketsAsked ETV
vector 2 NetworkFV.queueOne bufferSize ETV
vector 3 NetworkFV.nodeTx.gen packetGen ETV
vector 4 NetworkFV.nodeTx.queue BufferSize ETV
vector 5 NetworkFV.nodeTx.queue PacketsSent ETV
vector 6 NetworkFV.queueZero bufferSize ETV
vector 7 NetworkFV.nodeRx.queue BufferSize ETV
vector 8 NetworkFV.nodeRx.sink Delay ETV
vector 9 NetworkFV.nodeRx.sink packetUsed ETV
0	1	0	1
0	6	0.2	1
0	13	0.4	1
0	36	1.0004	1
0	37	1.2006	1
0	46	1.4008	1
0	61	1.8012	1
0	64	2.0014	1
0	71	2.2016	1
0	112	3.0024	1
0	123	3.4028	1
0	124	3.603	1
0	125	3.8032	1
0	126	4.0034	1
0	133	4.2036	1
0	171	5.0044	1
0	172	5.2046	1
0	173	5.4048	1
0	180	5.605	1
0	187	6.0054	1
0	188	6.2056	1
0	193	6.4058	1
0	203	6.606	1
0	211	6.8062	1
0	214	7.0064	1
0	215	7.2066	1
0	216	7.4068	1
0	217	7.607	1
0	218	7.8072	1
0	223	8.0074	1
0	228	8.2076	1
0	236	8.4078	1
0	249	8.608	1
0	252	8.8082	1
0	253	9.0084	1
0	254	9.2086	1
0	255	9.4088	1
0	256	9.609	1
0	261	9.8092	1
0	266	10.0094	1
0	274	10.2096	1
0	288	10.61	1
0	289	10.8102	1
0	290	11.0104	1
0	291	11.2106	1
0	292	11.4108	1
0	293	11.611	1
0	298	11.8112	1
0	299	12.0114	1
0	300	12.2116	1
0	301	12.4118	1
0	302	12.612	1
0	309	12.8122	1
1	1	0	2
1	27	0.783569909984	2
1	53	1.550093073573	4
1	101	2.753876852775	6
1	133	4.2036	3
1	161	4.608123203293	3
1	188	6.2056	1
1	205	6.613221310442	1
1	218	7.8072	0
1	223	8.0074	0
1	228	8.2076	1
1	243	8.581882823876	1
1	256	9.609	0
1	261	9.8092	0
1	266	10.0094	1
1	279	10.322722928492	2
1	293	11.611	1
1	309	12.8122	0
2	2	0	1
2	29	0.783569909984	1
2	54	1.550093073573	1
2	102	2.753876852775	1
2	134	4.2036	1
2	162	4.608123203293	1
2	189	6.2056	1
2	207	6.613221310442	1
2	219	7.8072	1
2	224	8.0074	1
2	229	8.2076	1
2	245	8.581882823876	1
2	257	9.609	1
2	262	9.8092	1
2	267	10.0094	1
2	281	10.322722928492	1
2	294	11.611	1
2	310	12.8122	1
3	7	0.22742065585	1
3	17	0.583369909984	1
3	38	1.249893073573	1
3	41	1.301460995494	1
3	65	2.021521925676	1
3	75	2.353676852775	1
3	78	2.395683859033	1
3	86	2.530581969954	1
3	107	2.933265873838	1
3	127	4.030334455501	1
3	141	4.257511652092	1
3	148	4.407923203293	1
3	174	5.458297221029	1
3	194	6.413021310442	1
3	200	6.573946219491	1
3	233	8.381682823876	1
3	237	8.447310886646	1
3	271	10.122522928492	1
3	303	12.669884653197	1
3	323	13.71104066442	1
3	330	14.457484933192	1
3	334	14.626290823024	1
3	337	14.69937239307	1
3	344	15.511363856892	1
3	353	16.665560596754	1
3	359	17.412527610895	1
3	363	17.567788801281	1
3	372	18.736049967824	1
3	376	18.995301461297	1
3	381	19.385854455733	1
3	386	19.698527092343	1
3	394	20.815695080558	1
3	403	21.889159758847	1
3	408	22.292979249002	1
3	414	22.854681799391	1
3	417	22.938317255232	1
3	421	23.156252910206	1
3	426	23.487797987787	1
3	431	24.020672819123	1
3	440	25.12569446354	1
3	444	25.241643668027	1
3	449	25.693970321759	1
3	463	27.941474013528	1
3	467	28.136265836728	1
3	474	28.888431560582	1
3	478	29.177399595693	1
3	484	29.752225620496	1
3	488	29.878592536989	1
3	492	30.218525854242	1
3	503	31.768025335277	1
3	506	31.807784943053	1
3	510	31.862623003032	1
3	519	33.119132951151	1
3	523	33.319418100448	1
3	529	34.024712797159	1
3	539	35.313405115438	1
3	548	36.625186096197	1
3	561	38.554517862336	1
3	571	39.96102617344	1
3	577	40.588259987484	1
3	581	40.655725906195	1
3	586	41.198190047755	1
3	594	42.168366858774	1
3	600	42.658381646995	1
3	603	42.707676744985	1
3	606	42.798976255127	1
3	614	43.838710492645	1
3	622	44.833469199529	1
3	628	45.360707487856	1
3	639	46.945123899699	1
3	645	47.513117989401	1
3	652	48.370057576087	1
3	660	49.343794756311	1
3	682	53.144426633098	1
3	690	54.198394440221	1
3	699	55.386857561872	1
3	704	55.661910657505	1
3	707	55.77460630154	1
3	710	55.784997095119	1
3	716	56.258575708829	1
3	725	57.586363608864	1
3	729	57.839289345549	1
3	740	59.363523345031	1
3	749	60.64464925133	1
3	753	60.780014865044	1
3	763	62.181912818523	1
3	770	62.958402182269	1
3	774	63.11503016547	1
3	779	63.489913989273	1
3	788	64.860131608389	1
3	793	65.097953163735	1
3	796	65.227967281386	1
3	800	65.427271997662	1
3	805	65.73245670884	1
3	809	66.017536195677	1
3	819	67.316189921383	1
3	839	70.705481837674	1
3	846	71.477776583988	1
3	850	71.696132946179	1
3	853	71.705438016355	1
3	858	72.102058460801	1
3	867	73.388050832918	1
3	870	73.404765033355	1
3	873	73.434112687036	1
3	881	74.297368242909	1
3	888	75.210750827878	1
3	892	75.446453069609	1
3	900	76.435931958994	1
3	909	77.656475905826	1
3	915	78.103727055746	1
3	922	78.893631558374	1
3	928	79.620905997173	1
3	934	80.11132116014	1
3	941	80.986327661863	1
3	950	82.098098769161	1
3	958	83.227079598989	1
3	977	86.446539582237	1
3	1013	93.004560873664	1
3	1024	94.499404266628	1
3	1041	97.468617515456	1
3	1047	97.975559623819	1
3	1056	99.281302886072	1
3	1074	102.128582934296	1
3	1082	103.23437284856	1
3	1085	103.278415406089	1
3	1096	104.841414683947	1
3	1105	106.029135431656	1
3	1111	106.543658501823	1
3	1119	107.55704302216	1
3	1127	108.666104091003	1
3	1134	109.339907829276	1
3	1138	109.617727358891	1
3	1145	110.371017065349	1
3	1152	111.184099035692	1
3	1161	112.33928516104	1
3	1171	113.894405710132	1
3	1180	114.927248434761	1
3	1189	116.308020670717	1
3	1200	117.73566520882	1
3	1219	120.970449365121	1
3	1222	121.07821190644	1
3	1229	121.913962833157	1
3	1233	122.113850475945	1
3	1258	126.522364576607	1
3	1267	127.672284093972	1
3	1271	127.742872592464	1
3	1276	128.193463331826	1
3	1280	128.34726788216	1
3	1284	128.720121652523	1
3	1288	128.895701000453	1
3	1292	129.045623828944	1
3	1297	129.441582828872	1
3	1301	129.536981485676	1
3	1310	130.738873939975	1
3	1315	131.209553849946	1
3	1320	131.694643140161	1
3	1327	132.481662860724	1
3	1332	132.748724145698	1
3	1341	133.963588005398	1
3	1346	134.433063323806	1
3	1358	136.27176368617	1
3	1367	137.428104346074	1
3	1385	140.48539634578	1
3	1390	140.808735251423	1
3	1396	141.355941050469	1
3	1407	143.016717387704	1
3	1412	143.477095177555	1
3	1416	143.649518256123	1
3	1421	143.96916340666	1
3	1424	144.041342736767	1
3	1435	145.627463518392	1
3	1439	145.746808711981	1
3	1452	147.912372860306	1
3	1460	148.929524151352	1
3	1470	150.237240724022	1
3	1483	152.221358572341	1
3	1486	152.285042821542	1
3	1490	152.420181940007	1
3	1497	153.258506442853	1
3	1504	154.126731221994	1
3	1520	156.647119018956	1
3	1525	157.100113601574	1
3	1529	157.197083275085	1
3	1534	157.742406063721	1
3	1554	161.158804049664	1
3	1569	163.511773194778	1
3	1574	163.908787115941	1
3	1578	164.097061825228	1
3	1586	165.052733660018	1
3	1591	165.544886659947	1
3	1595	165.662790232959	1
3	1601	166.338113609724	1
3	1619	169.266052385612	1
3	1623	169.475685476471	1
3	1631	170.423568483312	1
3	1639	171.423472037701	1
3	1654	173.907039517647	1
3	1660	174.552794526785	1
3	1674	176.708294417064	1
3	1677	176.762349983081	1
3	1683	177.279390558277	1
3	1690	177.982380304225	1
3	1705	180.418648925456	1
3	1712	181.24348440409	1
3	1720	182.345907659559	1
3	1727	183.085495699206	1
3	1731	183.365212094639	1
3	1739	184.294452471407	1
3	1743	184.472801957439	1
3	1762	187.593012980713	1
3	1769	188.552247449844	1
3	1782	190.401923956091	1
3	1792	191.955439146616	1
3	1804	193.675884159242	1
3	1818	195.822363135357	1
3	1823	196.240036063747	1
3	1830	197.125608549367	1
3	1838	198.138868294471	1
3	1842	198.298761838454	1
3	1846	198.467189738	1
3	1850	198.764903498137	1
3	1854	198.90308850718	1
3	1861	199.701604071237	1
4	8	0.22742065585	1
4	18	0.583369909984	1
4	39	1.249893073573	1
4	42	1.301460995494	1
4	66	2.021521925676	1
4	76	2.353676852775	1
4	79	2.395683859033	1
4	87	2.530581969954	1
4	108	2.933265873838	1
4	128	4.030334455501	1
4	142	4.257511652092	1
4	149	4.407923203293	1
4	175	5.458297221029	1
4	195	6.413021310442	1
4	201	6.573946219491	1
4	234	8.381682823876	2
4	238	8.447310886646	2
4	272	10.122522928492	3
4	304	12.669884653197	3
4	324	13.71104066442	3
4	331	14.457484933192	4
4	335	14.626290823024	5
4	338	14.69937239307	6
4	345	15.511363856892	7
4	354	16.665560596754	8
4	360	17.412527610895	9
4	364	17.567788801281	10
4	373	18.736049967824	11
4	377	18.995301461297	12
4	382	19.385854455733	13
4	387	19.698527092343	14
4	395	20.815695080558	15
4	404	21.889159758847	16
4	409	22.292979249002	17
4	415	22.854681799391	18
4	418	22.938317255232	19
4	422	23.156252910206	20
4	427	23.487797987787	21
4	432	24.020672819123	22
4	441	25.12569446354	23
4	445	25.241643668027	24
4	450	25.693970321759	25
4	464	27.941474013528	26
4	468	28.136265836728	27
4	475	28.888431560582	28
4	479	29.177399595693	29
4	485	29.752225620496	30
4	489	29.878592536989	31
4	493	30.218525854242	32
4	504	31.768025335277	33
4	507	31.807784943053	34
4	511	31.862623003032	35
4	520	33.119132951151	36
4	524	33.319418100448	37
4	530	34.024712797159	38
4	540	35.313405115438	39
4	549	36.625186096197	40
4	562	38.554517862336	41
4	572	39.96102617344	42
4	578	40.588259987484	43
4	582	40.655725906195	44
4	587	41.198190047755	45
4	595	42.168366858774	46
4	601	42.658381646995	47
4	604	42.707676744985	48
4	607	42.798976255127	49
4	615	43.838710492645	50
4	623	44.833469199529	51
4	629	45.360707487856	52
4	640	46.945123899699	53
4	646	47.513117989401	54
4	653	48.370057576087	55
4	661	49.343794756311	56
4	683	53.144426633098	57
4	691	54.198394440221	58
4	700	55.386857561872	59
4	705	55.661910657505	60
4	708	55.77460630154	61
4	711	55.784997095119	62
4	717	56.258575708829	63
4	726	57.586363608864	64
4	730	57.839289345549	65
4	741	59.363523345031	66
4	750	60.64464925133	67
4	754	60.780014865044	68
4	764	62.181912818523	69
4	771	62.958402182269	70
4	775	63.11503016547	71
4	780	63.489913989273	72
4	789	64.860131608389	73
4	794	65.097953163735	74
4	797	65.227967281386	75
4	801	65.427271997662	76
4	806	65.73245670884	77
4	810	66.017536195677	78
4	820	67.316189921383	79
4	840	70.705481837674	80
4	847	71.477776583988	81
4	851	71.696132946179	82
4	854	71.705438016355	83
4	859	72.102058460801	84
4	868	73.388050832918	85
4	871	73.404765033355	86
4	874	73.434112687036	87
4	882	74.297368242909	88
4	889	75.210750827878	89
4	893	75.446453069609	90
4	901	76.435931958994	91
4	910	77.656475905826	92
4	916	78.103727055746	93
4	923	78.893631558374	94
4	929	79.620905997173	95
4	935	80.11132116014	96
4	942	80.986327661863	97
4	951	82.098098769161	98
4	959	83.227079598989	99
4	978	86.446539582237	100
4	1014	93.004560873664	101
4	1025	94.499404266628	102
4	1042	97.468617515456	103
4	1048	97.975559623819	104
4	1057	99.281302886072	105
4	1075	102.128582934296	106
4	1083	103.23437284856	107
4	1086	103.278415406089	108
4	1097	104.841414683947	109
4	1106	106.029135431656	110
4	1112	106.543658501823	111
4	1120	107.55704302216	112
4	1128	108.666104091003	113
4	1135	109.339907829276	114
4	1139	109.617727358891	115
4	1146	110.371017065349	116
4	1153	111.184099035692	117
4	1162	112.33928516104	118
4	1172	113.894405710132	119
4	1181	114.927248434761	120
4	1190	116.308020670717	121
4	1201	117.73566520882	122
4	1220	120.970449365121	123
4	1223	121.07821190644	124
4	1230	121.913962833157	125
4	1234	122.113850475945	126
4	1259	126.522364576607	127
4	1268	127.672284093972	128
4	1272	127.742872592464	129
4	1277	128.193463331826	130
4	1281	128.34726788216	131
4	1285	128.720121652523	132
4	1289	128.895701000453	133
4	1293	129.045623828944	134
4	1298	129.441582828872	135
4	1302	129.536981485676	136
4	1311	130.738873939975	137
4	1316	131.209553849946	138
4	1321	131.694643140161	139
4	1328	132.481662860724	140
4	1333	132.748724145698	141
4	1342	133.963588005398	142
4	1347	134.433063323806	143
4	1359	136.27176368617	144
4	1368	137.428104346074	145
4	1386	140.48539634578	146
4	1391	140.808735251423	147
4	1397	141.355941050469	148
4	1408	143.016717387704	149
4	1413	143.477095177555	150
4	1417	143.649518256123	151
4	1422	143.96916340666	152
4	1425	144.041342736767	153
4	1436	145.627463518392	154
4	1440	145.746808711981	155
4	1453	147.912372860306	156
4	1461	148.929524151352	157
4	1471	150.237240724022	158
4	1484	152.221358572341	159
4	1487	152.285042821542	160
4	1491	152.420181940007	161
4	1498	153.258506442853	162
4	1505	154.126731221994	163
4	1521	156.647119018956	164
4	1526	157.100113601574	165
4	1530	157.197083275085	166
4	1535	157.742406063721	167
4	1555	161.158804049664	168
4	1570	163.511773194778	169
4	1575	163.908787115941	170
4	1579	164.097061825228	171
4	1587	165.052733660018	172
4	1592	165.544886659947	173
4	1596	165.662790232959	174
4	1602	166.338113609724	175
4	1620	169.266052385612	176
4	1624	169.475685476471	177
4	1632	170.423568483312	178
4	1640	171.423472037701	179
4	1655	173.907039517647	180
4	1661	174.552794526785	181
4	1675	176.708294417064	182
4	1678	176.762349983081	183
4	1684	177.279390558277	184
4	1691	177.982380304225	185
4	1706	180.418648925456	186
4	1713	181.24348440409	187
4	1721	182.345907659559	188
4	1728	183.085495699206	189
4	1732	183.365212094639	190
4	1740	184.294452471407	191
4	1744	184.472801957439	192
4	1763	187.593012980713	193
4	1770	188.552247449844	194
4	1783	190.401923956091	195
4	1793	191.955439146616	196
4	1805	193.675884159242	197
4	1819	195.822363135357	198
4	1824	196.240036063747	199
4	1831	197.125608549367	200
4	1839	198.138868294471	201
4	1843	198.298761838454	202
4	1847	198.467189738	203
4	1851	198.764903498137	204
4	1855	198.90308850718	205
4	1862	199.701604071237	206
5	9	0.22742065585	1
5	19	0.583369909984	2
5	40	1.249893073573	3
5	43	1.349893073573	4
5	67	2.021521925676	5
5	77	2.353676852775	6
5	83	2.453676852775	7
5	88	2.553676852775	8
5	109	2.933265873838	9
5	129	4.030334455501	10
5	143	4.257511652092	11
5	150	4.407923203293	12
5	176	5.458297221029	13
5	196	6.413021310442	14
5	235	8.381682823876	15
5	273	10.122522928492	16
5	305	12.669884653197	17
6	11	0.32752065585	1
6	24	0.683469909984	1
6	44	1.349993073573	1
6	48	1.449993073573	1
6	69	2.121621925676	1
6	84	2.453776852775	1
6	89	2.553776852775	1
6	95	2.653776852775	1
6	114	3.033365873838	1
6	131	4.130434455501	1
6	145	4.357611652092	1
6	157	4.508023203293	1
6	178	5.558397221029	1
6	198	6.513121310442	1
6	240	8.481782823876	1
6	276	10.222622928492	1
6	307	12.769984653197	1
7	15	0.42762065585	1
7	27	0.783569909984	1
7	50	1.450093073573	1
7	53	1.550093073573	1
7	73	2.221721925676	1
7	91	2.553876852775	1
7	97	2.653876852775	1
7	101	2.753876852775	1
7	117	3.133465873838	1
7	139	4.230534455501	1
7	154	4.457711652092	1
7	161	4.608123203293	1
7	182	5.658497221029	1
7	205	6.613221310442	1
7	243	8.581882823876	1
7	279	10.322722928492	1
7	315	12.870084653197	1
8	21	0.62762065585	0.4002
8	34	0.983569909984	0.4002
8	59	1.650093073573	0.4002
8	62	1.850093073573	0.548632078079
8	81	2.421721925676	0.4002
8	99	2.753876852775	0.4002
8	110	2.953876852775	0.558192993742
8	118	3.153876852775	0.623294882821
8	121	3.353876852775	0.420610978937
8	151	4.430534455501	0.4002
8	166	4.657711652092	0.4002
8	169	4.857711652092	0.449788448799
8	185	5.858497221029	0.4002
8	212	6.813221310442	0.4002
8	250	8.781882823876	2.207936604385
8	286	10.522722928492	2.141040104616
8	318	13.070084653197	4.622773766551
9	21	0.62762065585	1
9	34	0.983569909984	1
9	59	1.650093073573	1
9	62	1.850093073573	1
9	81	2.421721925676	1
9	99	2.753876852775	1
9	110	2.953876852775	1
9	118	3.153876852775	1
9	121	3.353876852775	1
9	151	4.430534455501	1
9	166	4.657711652092	1
9	169	4.857711652092	1
9	185	5.858497221029	1
9	212	6.813221310442	1
9	250	8.781882823876	1
9	286	10.522722928492	1
9	318	13.070084653197	1

