version 3
run FeedbackVersion-9-20240511-20:45:11-11876
attr configname FeedbackVersion
attr datetime 20240511-20:45:11
attr datetimef 20240511-204511
attr experiment FeedbackVersion
attr inifile omnetpp.ini
attr iterationvars $genInterval=0.55
attr iterationvarsd genInterval=0.55
attr iterationvarsf genInterval=0.55-
attr measurement $genInterval=0.55
attr network NetworkFV
attr processid 11876
attr repetition 0
attr replication #0
attr resultdir results
attr runnumber 9
attr seedset 9
itervar genInterval 0.55
config network NetworkFV
config sim-time-limit 200s
config NetworkFV.nodeTx.gen.generationInterval exponential(0.55)
config NetworkFV.nodeTx.gen.packetByteSize 12500
config NetworkFV.queueOne.bufferSize 200
config NetworkFV.nodeRx.queue.bufferSize 200
config NetworkFV.nodeTx.queue.bufferSize 2000000
config NetworkFV.queueZero.bufferSize 200

vector 0 NetworkFV.nodeRx.queue PacketsLost ETV
vector 1 NetworkFV.nodeRx.queue PacketsAsked ETV
vector 2 NetworkFV.queueOne bufferSize ETV
vector 3 NetworkFV.nodeTx.gen packetGen ETV
vector 4 NetworkFV.nodeTx.queue BufferSize ETV
vector 5 NetworkFV.nodeTx.queue PacketsSent ETV
vector 6 NetworkFV.queueZero bufferSize ETV
vector 7 NetworkFV.nodeRx.queue BufferSize ETV
vector 8 NetworkFV.nodeRx.sink Delay ETV
vector 9 NetworkFV.nodeRx.sink packetUsed ETV
0	1	0	1
0	12	0.2	1
0	41	0.8004	1
0	54	1.2008	1
0	131	2.6022	1
0	134	2.8024	1
0	137	3.0026	1
0	144	3.2028	1
0	234	4.8044	1
0	258	5.405	1
0	261	5.6052	1
0	262	5.8054	1
0	263	6.0056	1
0	270	6.2058	1
0	293	6.8064	1
0	294	7.0066	1
0	295	7.2068	1
0	296	7.407	1
0	297	7.6072	1
0	298	7.8074	1
0	306	8.0076	1
0	317	8.2078	1
0	320	8.408	1
0	321	8.6082	1
0	327	8.8084	1
0	341	9.2088	1
0	342	9.409	1
0	343	9.6092	1
0	344	9.8094	1
0	345	10.0096	1
0	346	10.2098	1
0	351	10.41	1
0	352	10.6102	1
0	359	10.8104	1
0	367	11.0106	1
0	370	11.2108	1
0	377	11.411	1
0	385	11.6112	1
0	388	11.8114	1
0	392	12.0116	1
0	406	12.412	1
0	415	12.6122	1
0	430	13.0126	1
0	433	13.2128	1
0	434	13.413	1
0	435	13.6132	1
0	439	13.8134	1
0	462	14.414	1
0	475	14.6142	1
0	482	15.0146	1
0	483	15.2148	1
0	484	15.415	1
0	485	15.6152	1
0	486	15.8154	1
0	491	16.0156	1
0	499	16.2158	1
0	504	16.416	1
0	508	16.6162	1
0	519	16.8164	1
0	525	17.0166	1
0	539	17.417	1
0	540	17.6172	1
0	547	17.8174	1
0	562	18.2178	1
0	565	18.418	1
0	566	18.6182	1
0	567	18.8184	1
0	568	19.0186	1
0	569	19.2188	1
0	580	19.419	1
0	594	19.6192	1
0	607	20.0196	1
0	614	20.2198	1
0	621	20.6202	1
0	628	20.8204	1
0	642	21.2208	1
0	652	21.6212	1
0	653	21.8214	1
0	654	22.0216	1
0	658	22.2218	1
0	668	22.6222	1
0	679	22.8224	1
0	692	23.2228	1
0	703	23.6232	1
0	704	23.8234	1
0	711	24.0236	1
0	718	24.424	1
0	719	24.6242	1
0	720	24.8244	1
0	725	25.0246	1
0	726	25.2248	1
0	730	25.425	1
0	741	25.6252	1
0	750	25.8254	1
0	758	26.0256	1
0	761	26.2258	1
0	762	26.426	1
0	766	26.6262	1
0	780	27.0266	1
0	781	27.2268	1
0	782	27.427	1
0	789	27.6272	1
0	796	28.0276	1
0	797	28.2278	1
0	802	28.428	1
0	803	28.6282	1
0	804	28.8284	1
0	805	29.0286	1
0	806	29.2288	1
0	807	29.429	1
0	812	29.6292	1
0	820	29.8294	1
0	834	30.0296	1
0	839	30.2298	1
0	849	30.43	1
0	860	30.6302	1
0	863	30.8304	1
0	864	31.0306	1
0	865	31.2308	1
0	866	31.431	1
0	867	31.6312	1
0	872	31.8314	1
0	880	32.0316	1
0	885	32.2318	1
0	889	32.432	1
0	903	32.8324	1
0	907	33.0326	1
0	930	33.6332	1
0	931	33.8334	1
0	932	34.0336	1
0	936	34.2338	1
0	961	34.8344	1
0	964	35.0346	1
0	965	35.2348	1
0	966	35.435	1
0	970	35.6352	1
0	1002	36.436	1
0	1005	36.6362	1
0	1006	36.8364	1
0	1007	37.0366	1
0	1008	37.2368	1
0	1009	37.437	1
0	1017	37.6372	1
0	1034	38.2378	1
0	1035	38.438	1
0	1036	38.6382	1
0	1037	38.8384	1
0	1038	39.0386	1
0	1043	39.2388	1
0	1044	39.439	1
0	1045	39.6392	1
0	1052	39.8394	1
0	1063	40.0396	1
0	1066	40.2398	1
0	1067	40.44	1
0	1077	40.6402	1
0	1085	40.8404	1
0	1088	41.0406	1
0	1095	41.2408	1
0	1106	41.6412	1
0	1107	41.8414	1
0	1108	42.0416	1
0	1112	42.2418	1
0	1133	42.8424	1
0	1134	43.0426	1
0	1141	43.2428	1
0	1152	43.6432	1
0	1155	43.8434	1
0	1156	44.0436	1
0	1161	44.2438	1
0	1167	44.444	1
0	1188	45.0446	1
0	1192	45.2448	1
0	1202	45.6452	1
0	1209	45.8454	1
0	1246	46.446	1
0	1258	46.8464	1
0	1265	47.0466	1
0	1290	47.6472	1
0	1306	48.0476	1
0	1313	48.2478	1
0	1328	48.6482	1
0	1345	49.0486	1
0	1353	49.449	1
0	1354	49.6492	1
0	1359	49.8494	1
0	1360	50.0496	1
0	1367	50.2498	1
0	1374	50.6502	1
0	1375	50.8504	1
0	1376	51.0506	1
0	1384	51.2508	1
0	1395	51.451	1
0	1398	51.6512	1
0	1399	51.8514	1
0	1400	52.0516	1
0	1401	52.2518	1
0	1402	52.452	1
0	1407	52.6522	1
0	1412	52.8524	1
0	1417	53.0526	1
0	1422	53.2528	1
0	1426	53.453	1
0	1440	53.6532	1
0	1443	53.8534	1
0	1444	54.0536	1
0	1445	54.2538	1
0	1446	54.454	1
0	1447	54.6542	1
0	1452	54.8544	1
0	1460	55.0546	1
0	1465	55.2548	1
0	1466	55.455	1
0	1470	55.6552	1
0	1507	56.456	1
0	1514	56.6562	1
0	1538	57.2568	1
0	1541	57.457	1
0	1542	57.6572	1
0	1543	57.8574	1
0	1544	58.0576	1
0	1551	58.2578	1
0	1580	58.637083088731	1
0	1581	58.6582	1
0	1584	58.8584	1
0	1587	59.0586	1
0	1588	59.2588	1
0	1589	59.459	1
0	1594	59.6592	1
0	1595	59.8594	1
0	1596	60.0596	1
0	1597	60.2598	1
0	1598	60.46	1
0	1599	60.6602	1
0	1607	60.8604	1
0	1612	61.0606	1
0	1617	61.2608	1
0	1628	61.461	1
0	1633	61.6612	1
0	1634	61.8614	1
0	1644	62.0616	1
0	1661	62.462	1
0	1686	62.8624	1
0	1713	63.463	1
0	1724	63.6632	1
0	1752	64.2638	1
0	1755	64.464	1
0	1761	64.6642	1
0	1817	65.6652	1
0	1823	65.8654	1
0	1865	66.8664	1
0	1868	67.0666	1
0	1871	67.2668	1
0	1878	67.467	1
0	1889	67.8674	1
0	1896	68.0676	1
0	1915	68.6682	1
0	1916	68.8684	1
0	1917	69.0686	1
0	1928	69.2688	1
0	1960	69.8694	1
0	1961	70.0696	1
0	1968	70.2698	1
0	1979	70.6702	1
0	1980	70.8704	1
0	1981	71.0706	1
0	1982	71.2708	1
0	1986	71.471	1
0	2006	71.8714	1
0	2051	72.6722	1
0	2054	72.8724	1
0	2055	73.0726	1
0	2056	73.2728	1
0	2063	73.473	1
0	2081	74.0736	1
0	2086	74.2738	1
0	2090	74.474	1
0	2124	75.0746	1
0	2144	75.475	1
0	2163	76.0756	1
0	2170	76.2758	1
0	2202	76.8764	1
0	2217	77.2768	1
0	2245	77.6772	1
0	2263	78.2778	1
0	2266	78.478	1
0	2273	78.6782	1
0	2280	79.0786	1
0	2284	79.2788	1
0	2301	79.6792	1
0	2317	80.0796	1
0	2334	80.48	1
0	2344	80.8804	1
0	2354	81.2808	1
0	2355	81.481	1
0	2356	81.6812	1
0	2363	81.8814	1
0	2375	82.0816	1
0	2386	82.2818	1
0	2423	83.0826	1
0	2424	83.2828	1
0	2428	83.483	1
0	2451	84.0836	1
0	2466	84.484	1
0	2502	85.2848	1
0	2505	85.485	1
0	2506	85.6852	1
0	2507	85.8854	1
0	2508	86.0856	1
0	2509	86.2858	1
0	2514	86.486	1
0	2520	86.6862	1
0	2550	87.2868	1
0	2571	87.8874	1
0	2572	88.0876	1
0	2573	88.2878	1
0	2574	88.488	1
0	2575	88.6882	1
0	2580	88.8884	1
0	2581	89.0886	1
0	2588	89.2888	1
0	2596	89.489	1
0	2602	89.6892	1
0	2616	90.0896	1
0	2617	90.2898	1
0	2624	90.49	1
0	2637	90.8904	1
0	2651	91.2908	1
0	2672	91.8914	1
0	2673	92.0916	1
0	2682	92.2918	1
0	2693	92.6922	1
0	2694	92.8924	1
0	2695	93.0926	1
0	2696	93.2928	1
0	2697	93.493	1
0	2698	93.6932	1
0	2703	93.8934	1
0	2704	94.0936	1
0	2705	94.2938	1
0	2706	94.494	1
0	2707	94.6942	1
0	2708	94.8944	1
0	2716	95.0946	1
0	2721	95.2948	1
0	2734	95.495	1
0	2748	95.6952	1
0	2784	96.2958	1
0	2790	96.496	1
0	2827	97.2968	1
0	2833	97.497	1
0	2854	98.0976	1
0	2857	98.2978	1
0	2868	98.498	1
0	2901	99.2988	1
0	2904	99.499	1
0	2905	99.6992	1
0	2914	99.8994	1
0	2936	100.5	1
0	2939	100.7002	1
0	2944	100.9004	1
0	2951	101.1006	1
0	2961	101.501	1
0	2971	101.9014	1
0	2972	102.1016	1
0	2978	102.3018	1
0	2997	102.502	1
0	3009	102.9024	1
0	3010	103.1026	1
0	3014	103.3028	1
0	3037	103.9034	1
0	3038	104.1036	1
0	3039	104.3038	1
0	3040	104.504	1
0	3041	104.7042	1
0	3045	104.9044	1
0	3062	105.1046	1
0	3074	105.505	1
0	3075	105.7052	1
0	3076	105.9054	1
0	3077	106.1056	1
0	3081	106.3058	1
0	3110	106.9064	1
0	3117	107.3068	1
0	3118	107.507	1
0	3119	107.7072	1
0	3120	107.9074	1
0	3121	108.1076	1
0	3126	108.3078	1
0	3127	108.508	1
0	3128	108.7082	1
0	3129	108.9084	1
0	3138	109.1086	1
0	3150	109.3088	1
0	3153	109.509	1
0	3156	109.7092	1
0	3157	109.9094	1
0	3158	110.1096	1
0	3162	110.3098	1
0	3183	110.51	1
0	3192	110.7102	1
0	3195	110.9104	1
0	3196	111.1106	1
0	3197	111.3108	1
0	3204	111.511	1
0	3215	111.9114	1
0	3216	112.1116	1
0	3223	112.3118	1
0	3244	112.7122	1
0	3280	113.513	1
0	3281	113.7132	1
0	3285	113.9134	1
0	3298	114.3138	1
0	3308	114.7142	1
0	3309	114.9144	1
0	3317	115.1146	1
0	3343	115.7152	1
0	3344	115.9154	1
0	3345	116.1156	1
0	3352	116.3158	1
0	3359	116.7162	1
0	3360	116.9164	1
0	3371	117.1166	1
0	3382	117.3168	1
0	3401	117.7172	1
0	3411	118.1176	1
0	3412	118.3178	1
0	3413	118.518	1
0	3414	118.7182	1
0	3415	118.9184	1
0	3423	119.1186	1
0	3434	119.3188	1
0	3437	119.519	1
0	3438	119.7192	1
0	3439	119.9194	1
0	3440	120.1196	1
0	3441	120.3198	1
0	3446	120.52	1
0	3451	120.7202	1
0	3459	120.9204	1
0	3464	121.1206	1
0	3468	121.3208	1
0	3479	121.521	1
0	3485	121.7212	1
0	3501	122.1216	1
0	3502	122.3218	1
0	3503	122.522	1
0	3504	122.7222	1
0	3505	122.9224	1
0	3512	123.1226	1
0	3534	123.3228	1
0	3546	123.7232	1
0	3549	123.9234	1
0	3550	124.1236	1
0	3557	124.3238	1
0	3585	124.9244	1
0	3600	125.3248	1
0	3617	125.7252	1
0	3632	126.1256	1
0	3642	126.526	1
0	3643	126.7262	1
0	3644	126.9264	1
0	3651	127.1266	1
0	3658	127.527	1
0	3663	127.7272	1
0	3664	127.9274	1
0	3675	128.1276	1
0	3697	128.7282	1
0	3700	128.9284	1
0	3704	129.1286	1
0	3714	129.529	1
0	3715	129.7292	1
0	3716	129.9294	1
0	3727	130.1296	1
0	3735	130.3298	1
0	3738	130.53	1
0	3739	130.7302	1
0	3746	130.9304	1
0	3757	131.3308	1
0	3758	131.531	1
0	3765	131.7312	1
0	3788	132.3318	1
0	3789	132.532	1
0	3790	132.7322	1
0	3799	132.9324	1
0	3810	133.3328	1
0	3813	133.533	1
0	3824	133.7332	1
0	3832	133.9334	1
0	3835	134.1336	1
0	3836	134.3338	1
0	3845	134.534	1
0	3856	134.9344	1
0	3863	135.1346	1
0	3878	135.535	1
0	3881	135.7352	1
0	3885	135.9354	1
0	3895	136.3358	1
0	3896	136.536	1
0	3897	136.7362	1
0	3902	136.9364	1
0	3903	137.1366	1
0	3907	137.3368	1
0	3920	137.7372	1
0	3934	138.1376	1
0	3941	138.3378	1
0	3964	138.9384	1
0	3965	139.1386	1
0	3966	139.3388	1
0	3967	139.539	1
0	3968	139.7392	1
0	3969	139.9394	1
0	3974	140.1396	1
0	3975	140.3398	1
0	3984	140.54	1
0	3995	140.7402	1
0	4011	141.1406	1
0	4012	141.3408	1
0	4013	141.541	1
0	4014	141.7412	1
0	4015	141.9414	1
0	4016	142.1416	1
0	4021	142.3418	1
0	4028	142.542	1
0	4042	142.7422	1
0	4055	142.9424	1
0	4058	143.1426	1
0	4059	143.3428	1
0	4063	143.543	1
0	4080	143.9434	1
0	4081	144.1436	1
0	4085	144.3438	1
0	4108	144.9444	1
0	4109	145.1446	1
0	4116	145.3448	1
0	4140	145.9454	1
0	4143	146.1456	1
0	4144	146.3458	1
0	4145	146.546	1
0	4154	146.7462	1
0	4179	147.3468	1
0	4209	147.9474	1
0	4215	148.1476	1
0	4225	148.548	1
0	4226	148.7482	1
0	4227	148.9484	1
0	4228	149.1486	1
0	4233	149.3488	1
0	4234	149.549	1
0	4235	149.7492	1
0	4239	149.9494	1
0	4250	150.1496	1
0	4253	150.3498	1
0	4254	150.55	1
0	4255	150.7502	1
0	4259	150.9504	1
0	4273	151.3508	1
0	4274	151.551	1
0	4275	151.7512	1
0	4276	151.9514	1
0	4277	152.1516	1
0	4278	152.3518	1
0	4283	152.552	1
0	4284	152.7522	1
0	4285	152.9524	1
0	4289	153.1526	1
0	4300	153.3528	1
0	4303	153.553	1
0	4310	153.7532	1
0	4321	153.9534	1
0	4332	154.1536	1
0	4343	154.554	1
0	4344	154.7542	1
0	4345	154.9544	1
0	4352	155.1546	1
0	4367	155.555	1
0	4370	155.7552	1
0	4371	155.9554	1
0	4372	156.1556	1
0	4373	156.3558	1
0	4374	156.556	1
0	4379	156.7562	1
0	4380	156.9564	1
0	4387	157.1566	1
0	4398	157.3568	1
0	4401	157.557	1
0	4402	157.7572	1
0	4409	157.9574	1
0	4420	158.3578	1
0	4424	158.558	1
0	4451	159.1586	1
0	4470	159.559	1
0	4493	159.9594	1
0	4536	160.9604	1
0	4537	161.1606	1
0	4538	161.3608	1
0	4539	161.561	1
0	4543	161.7612	1
0	4588	162.562	1
0	4591	162.7622	1
0	4592	162.9624	1
0	4599	163.1626	1
0	4622	163.7632	1
0	4626	163.9634	1
0	4636	164.3638	1
0	4637	164.564	1
0	4638	164.7642	1
0	4645	164.9644	1
0	4672	165.565	1
0	4673	165.7652	1
0	4677	165.9654	1
0	4687	166.3658	1
0	4691	166.566	1
0	4705	166.9664	1
0	4712	167.1666	1
0	4746	167.9674	1
0	4747	168.1676	1
0	4748	168.3678	1
0	4749	168.568	1
0	4756	168.7682	1
0	4763	169.1686	1
0	4768	169.3688	1
0	4772	169.569	1
0	4803	170.1696	1
0	4815	170.57	1
0	4835	170.9704	1
0	4861	171.571	1
0	4869	171.7712	1
0	4900	172.572	1
0	4910	172.9724	1
0	4911	173.1726	1
0	4912	173.3728	1
0	4917	173.573	1
0	4918	173.7732	1
0	4919	173.9734	1
0	4920	174.1736	1
0	4927	174.3738	1
0	4934	174.7742	1
0	4939	174.9744	1
0	4944	175.1746	1
0	4949	175.3748	1
0	4953	175.575	1
0	4967	175.9754	1
0	4968	176.1756	1
0	4969	176.3758	1
0	4970	176.576	1
0	4977	176.7762	1
0	4990	177.1766	1
0	5002	177.3768	1
0	5005	177.577	1
0	5006	177.7772	1
0	5007	177.9774	1
0	5008	178.1776	1
0	5012	178.3778	1
1	1	0	2
1	26	0.455240613964	2
1	56	1.21881267591	4
1	99	1.895413794696	6
1	169	3.666727859708	10
1	270	6.2058	5
1	298	7.8074	1
1	311	8.205531082799	1
1	332	8.935235824424	2
1	346	10.2098	1
1	361	10.848435780047	1
1	379	11.50898680368	1
1	397	12.174018020816	2
1	422	12.741742940604	4
1	462	14.414	2
1	486	15.8154	0
1	491	16.0156	0
1	499	16.2158	1
1	513	16.755518081127	1
1	530	17.198444780326	2
1	554	17.965098189836	3
1	569	19.2188	1
1	582	19.443654772314	1
1	598	19.712350559935	2
1	630	20.910604951503	4
1	668	22.6222	2
1	694	23.23244674988	2
1	720	24.8244	1
1	735	25.581187306096	1
1	752	25.839873554811	1
1	771	26.735446145612	2
1	797	28.2278	1
1	807	29.429	0
1	812	29.6292	0
1	820	29.8294	0
1	834	30.0296	0
1	839	30.2298	1
1	854	30.590142879636	1
1	867	31.6312	0
1	872	31.8314	0
1	880	32.0316	1
1	894	32.60050810059	2
1	920	33.277188618984	3
1	953	34.591104916081	4
1	992	36.117392947859	7
1	1009	37.437	3
1	1038	39.0386	1
1	1057	39.930397215345	1
1	1079	40.652423971622	1
1	1097	41.285047230711	2
1	1123	42.521748390874	4
1	1156	44.0436	2
1	1178	44.693608159652	2
1	1211	45.878360246571	3
1	1248	46.497778380348	4
1	1297	47.803421094294	6
1	1354	49.6492	3
1	1376	51.0506	1
1	1389	51.438381196403	1
1	1402	52.452	0
1	1407	52.6522	0
1	1412	52.8524	0
1	1417	53.0526	1
1	1434	53.555862078659	1
1	1447	54.6542	0
1	1452	54.8544	0
1	1460	55.0546	1
1	1475	55.770544936559	2
1	1497	56.144921219135	3
1	1530	56.913614777696	4
1	1551	58.2578	2
1	1573	58.537083088731	2
1	1589	59.459	1
1	1599	60.6602	0
1	1607	60.8604	0
1	1612	61.0606	0
1	1617	61.2608	0
1	1628	61.461	1
1	1646	62.099236968451	2
1	1673	62.642428076934	3
1	1705	63.236978181703	4
1	1744	63.974602222671	6
1	1807	65.297828117393	10
1	1878	67.467	5
1	1928	69.2688	1
1	1936	69.269165612403	1
1	1945	69.369165612403	2
1	1970	70.290104345302	3
1	2006	71.8714	1
1	2014	71.967457631141	1
1	2023	72.067457631141	2
1	2041	72.279426197067	4
1	2081	74.0736	2
1	2109	74.814448156529	2
1	2133	75.239917956908	3
1	2172	76.373372934867	4
1	2230	77.449970564798	7
1	2284	79.2788	3
1	2319	80.100365322972	3
1	2363	81.8814	1
1	2369	81.981265338252	1
1	2388	82.356301575983	2
1	2413	82.770010270231	4
1	2468	84.543034921457	6
1	2509	86.2858	3
1	2539	87.051745009717	3
1	2575	88.6882	1
1	2590	89.364500769262	1
1	2607	89.889385876906	2
1	2639	90.955172290349	3
1	2684	92.381333779264	5
1	2698	93.6932	2
1	2708	94.8944	0
1	2716	95.0946	0
1	2721	95.2948	1
1	2736	95.521381897241	1
1	2755	95.731448798924	2
1	2776	96.073043131275	4
1	2817	96.935193149427	6
1	2882	98.765667438744	10
1	2939	100.7002	5
1	2978	102.3018	1
1	2991	102.405502425154	1
1	2999	102.505502425154	2
1	3027	103.59433643136	3
1	3045	104.9044	1
1	3056	105.094447903679	1
1	3064	105.194447903679	2
1	3094	106.564629435212	4
1	3121	108.1076	2
1	3145	109.22742152847	2
1	3162	110.3098	1
1	3177	110.47432990171	1
1	3185	110.57432990171	1
1	3206	111.592877571025	2
1	3230	112.415968965231	3
1	3270	113.250883286168	5
1	3309	114.9144	2
1	3334	115.427986859308	2
1	3360	116.9164	1
1	3373	117.200004405496	1
1	3389	117.448905272535	2
1	3415	118.9184	1
1	3428	119.225190806319	1
1	3441	120.3198	0
1	3446	120.52	0
1	3451	120.7202	0
1	3459	120.9204	1
1	3473	121.504142291746	1
1	3492	121.908182891085	2
1	3512	123.1226	1
1	3520	123.214889401659	1
1	3529	123.314889401659	1
1	3538	123.414889401659	2
1	3569	124.551063338053	4
1	3619	125.813639433631	6
1	3658	127.527	3
1	3689	128.425899058335	3
1	3716	129.9294	1
1	3729	130.133346209135	1
1	3748	131.03031015497	2
1	3779	132.095585345775	3
1	3813	133.533	1
1	3826	133.760529425693	1
1	3847	134.562323837926	2
1	3870	135.306108865383	4
1	3897	136.7362	2
1	3925	137.922402380607	2
1	3955	138.737705630598	3
1	3969	139.9394	1
1	3986	140.626007092063	1
1	4002	140.897187651136	2
1	4016	142.1416	1
1	4030	142.568813522753	1
1	4049	142.796422764471	1
1	4071	143.709832004905	2
1	4098	144.576311146047	3
1	4132	145.554204467017	5
1	4179	147.3468	2
1	4201	147.701649023868	2
1	4228	149.1486	1
1	4244	150.120772567782	1
1	4264	151.139512247248	2
1	4278	152.3518	1
1	4294	153.258281670576	1
1	4315	153.828066684734	1
1	4334	154.197691408393	2
1	4359	155.286662938942	3
1	4374	156.556	1
1	4392	157.21656785305	1
1	4411	158.008571958574	2
1	4435	158.777732318205	4
1	4479	159.737505324753	6
1	4543	161.7612	3
1	4576	162.221132302245	3
1	4613	163.524405285617	4
1	4645	164.9644	2
1	4663	165.347341317603	2
1	4696	166.695182604442	3
1	4737	167.7622087652	5
1	4763	169.1686	2
1	4787	169.827091652642	2
1	4820	170.670279292641	3
1	4853	171.330922691797	5
1	4912	173.3728	2
1	4934	174.7742	0
1	4939	174.9744	0
1	4944	175.1746	1
1	4958	175.769539776568	2
1	4990	177.1766	1
1	4996	177.268046583992	1
1	5012	178.3778	0
2	2	0	1
2	28	0.455240613964	1
2	58	1.21881267591	1
2	100	1.895413794696	1
2	170	3.666727859708	1
2	271	6.2058	1
2	299	7.8074	1
2	313	8.205531082799	1
2	334	8.935235824424	1
2	347	10.2098	1
2	363	10.848435780047	1
2	381	11.50898680368	1
2	399	12.174018020816	1
2	423	12.741742940604	1
2	463	14.414	1
2	487	15.8154	1
2	492	16.0156	1
2	500	16.2158	1
2	515	16.755518081127	1
2	532	17.198444780326	1
2	555	17.965098189836	1
2	570	19.2188	1
2	584	19.443654772314	1
2	600	19.712350559935	1
2	632	20.910604951503	1
2	669	22.6222	1
2	696	23.23244674988	1
2	721	24.8244	1
2	737	25.581187306096	1
2	754	25.839873554811	1
2	773	26.735446145612	1
2	798	28.2278	1
2	808	29.429	1
2	813	29.6292	1
2	821	29.8294	1
2	835	30.0296	1
2	840	30.2298	1
2	856	30.590142879636	1
2	868	31.6312	1
2	873	31.8314	1
2	881	32.0316	1
2	896	32.60050810059	1
2	921	33.277188618984	1
2	954	34.591104916081	1
2	993	36.117392947859	1
2	1010	37.437	1
2	1039	39.0386	1
2	1059	39.930397215345	1
2	1081	40.652423971622	1
2	1099	41.285047230711	1
2	1124	42.521748390874	1
2	1157	44.0436	1
2	1179	44.693608159652	1
2	1213	45.878360246571	1
2	1249	46.497778380348	1
2	1299	47.803421094294	1
2	1355	49.6492	1
2	1377	51.0506	1
2	1391	51.438381196403	1
2	1403	52.452	1
2	1408	52.6522	1
2	1413	52.8524	1
2	1418	53.0526	1
2	1436	53.555862078659	1
2	1448	54.6542	1
2	1453	54.8544	1
2	1461	55.0546	1
2	1477	55.770544936559	1
2	1498	56.144921219135	1
2	1531	56.913614777696	1
2	1552	58.2578	1
2	1575	58.537083088731	1
2	1590	59.459	1
2	1600	60.6602	1
2	1608	60.8604	1
2	1613	61.0606	1
2	1618	61.2608	1
2	1629	61.461	1
2	1648	62.099236968451	1
2	1674	62.642428076934	1
2	1706	63.236978181703	1
2	1745	63.974602222671	1
2	1808	65.297828117393	1
2	1879	67.467	1
2	1929	69.2688	1
2	1938	69.269165612403	1
2	1946	69.369165612403	1
2	1972	70.290104345302	1
2	2007	71.8714	1
2	2016	71.967457631141	1
2	2024	72.067457631141	1
2	2042	72.279426197067	1
2	2082	74.0736	1
2	2111	74.814448156529	1
2	2134	75.239917956908	1
2	2174	76.373372934867	1
2	2232	77.449970564798	1
2	2285	79.2788	1
2	2321	80.100365322972	1
2	2364	81.8814	1
2	2371	81.981265338252	1
2	2390	82.356301575983	1
2	2414	82.770010270231	1
2	2470	84.543034921457	1
2	2510	86.2858	1
2	2540	87.051745009717	1
2	2576	88.6882	1
2	2592	89.364500769262	1
2	2609	89.889385876906	1
2	2641	90.955172290349	1
2	2686	92.381333779264	1
2	2699	93.6932	1
2	2709	94.8944	1
2	2717	95.0946	1
2	2722	95.2948	1
2	2738	95.521381897241	1
2	2757	95.731448798924	1
2	2777	96.073043131275	1
2	2818	96.935193149427	1
2	2883	98.765667438744	1
2	2940	100.7002	1
2	2979	102.3018	1
2	2993	102.405502425154	1
2	3000	102.505502425154	1
2	3028	103.59433643136	1
2	3046	104.9044	1
2	3058	105.094447903679	1
2	3065	105.194447903679	1
2	3095	106.564629435212	1
2	3122	108.1076	1
2	3146	109.22742152847	1
2	3163	110.3098	1
2	3179	110.47432990171	1
2	3186	110.57432990171	1
2	3208	111.592877571025	1
2	3231	112.415968965231	1
2	3271	113.250883286168	1
2	3310	114.9144	1
2	3336	115.427986859308	1
2	3361	116.9164	1
2	3375	117.200004405496	1
2	3391	117.448905272535	1
2	3416	118.9184	1
2	3430	119.225190806319	1
2	3442	120.3198	1
2	3447	120.52	1
2	3452	120.7202	1
2	3460	120.9204	1
2	3475	121.504142291746	1
2	3494	121.908182891085	1
2	3513	123.1226	1
2	3522	123.214889401659	1
2	3530	123.314889401659	1
2	3539	123.414889401659	1
2	3570	124.551063338053	1
2	3620	125.813639433631	1
2	3659	127.527	1
2	3690	128.425899058335	1
2	3717	129.9294	1
2	3731	130.133346209135	1
2	3750	131.03031015497	1
2	3781	132.095585345775	1
2	3814	133.533	1
2	3828	133.760529425693	1
2	3849	134.562323837926	1
2	3871	135.306108865383	1
2	3898	136.7362	1
2	3927	137.922402380607	1
2	3957	138.737705630598	1
2	3970	139.9394	1
2	3988	140.626007092063	1
2	4004	140.897187651136	1
2	4017	142.1416	1
2	4032	142.568813522753	1
2	4051	142.796422764471	1
2	4073	143.709832004905	1
2	4099	144.576311146047	1
2	4133	145.554204467017	1
2	4180	147.3468	1
2	4202	147.701649023868	1
2	4229	149.1486	1
2	4246	150.120772567782	1
2	4266	151.139512247248	1
2	4279	152.3518	1
2	4296	153.258281670576	1
2	4317	153.828066684734	1
2	4336	154.197691408393	1
2	4360	155.286662938942	1
2	4375	156.556	1
2	4394	157.21656785305	1
2	4413	158.008571958574	1
2	4436	158.777732318205	1
2	4480	159.737505324753	1
2	4544	161.7612	1
2	4577	162.221132302245	1
2	4615	163.524405285617	1
2	4646	164.9644	1
2	4665	165.347341317603	1
2	4698	166.695182604442	1
2	4739	167.7622087652	1
2	4764	169.1686	1
2	4788	169.827091652642	1
2	4822	170.670279292641	1
2	4854	171.330922691797	1
2	4913	173.3728	1
2	4935	174.7742	1
2	4940	174.9744	1
2	4945	175.1746	1
2	4960	175.769539776568	1
2	4991	177.1766	1
2	4998	177.268046583992	1
2	5013	178.3778	1
3	6	0.005735589651	1
3	16	0.255040613964	1
3	33	0.638337493436	1
3	46	1.01861267591	1
3	62	1.395213794696	1
3	65	1.399378225901	1
3	70	1.478398675955	1
3	81	1.687467622076	1
3	87	1.771771988298	1
3	89	1.779148338008	1
3	104	1.914786704006	1
3	138	3.068340748444	1
3	148	3.366527859708	1
3	152	3.447901033795	1
3	165	3.604735460569	1
3	174	3.686801908444	1
3	177	3.735094130812	1
3	196	4.012289792856	1
3	209	4.245424683726	1
3	223	4.620806807974	1
3	229	4.72115606059	1
3	242	4.929810561191	1
3	264	6.089390637913	1
3	278	6.346970446686	1
3	303	8.005331082799	1
3	322	8.735035824424	1
3	325	8.756771311182	1
3	353	10.648235780047	1
3	371	11.30878680368	1
3	389	11.973818020816	1
3	407	12.441542940604	1
3	410	12.521577505269	1
3	436	13.77714627502	1
3	440	13.857551098459	1
3	467	14.462171289089	1
3	496	16.118775227851	1
3	505	16.555318081127	1
3	522	16.998244780326	1
3	541	17.664898189836	1
3	574	19.243454772314	1
3	588	19.512150559935	1
3	608	20.058322320797	1
3	622	20.710404951503	1
3	639	21.168065323333	1
3	655	22.126291469566	1
3	673	22.687540413583	1
3	684	23.03224674988	1
3	705	23.828783168161	1
3	727	25.380987306096	1
3	742	25.639673554811	1
3	763	26.535246145612	1
3	783	27.523899311071	1
3	817	29.776644751569	1
3	825	29.837324112576	1
3	828	29.939564402869	1
3	831	29.985015525417	1
3	844	30.389942879636	1
3	847	30.428480268769	1
3	877	32.02891107331	1
3	886	32.40030810059	1
3	904	32.976988618984	1
3	911	33.106264833085	1
3	933	34.190904916081	1
3	967	35.617192947859	1
3	1014	37.561532808134	1
3	1046	39.730197215345	1
3	1053	39.843074833572	1
3	1068	40.452223971622	1
3	1074	40.605423636479	1
3	1089	41.084847230711	1
3	1109	42.221548390874	1
3	1135	43.091330093227	1
3	1162	44.393408159652	1
3	1165	44.419712275651	1
3	1189	45.200694073309	1
3	1203	45.678160246571	1
3	1217	45.912475654574	1
3	1220	45.955063992894	1
3	1236	46.297578380348	1
3	1241	46.393518602294	1
3	1259	46.91216218028	1
3	1273	47.226065126155	1
3	1287	47.603221094294	1
3	1307	48.098672898523	1
3	1318	48.4561937498	1
3	1323	48.539247498266	1
3	1337	48.853799727161	1
3	1361	50.114329632493	1
3	1381	51.238181196403	1
3	1423	53.355662078659	1
3	1430	53.469768049746	1
3	1457	54.93030550159	1
3	1467	55.570344936559	1
3	1481	55.844721219135	1
3	1508	56.513414777696	1
3	1515	56.70127299162	1
3	1545	58.127389134818	1
3	1559	58.336883088731	1
3	1562	58.359022928789	1
3	1604	60.743115695115	1
3	1622	61.316005547291	1
3	1625	61.340093846085	1
3	1635	61.899036968451	1
3	1641	62.00159387754	1
3	1655	62.342228076934	1
3	1662	62.522697446015	1
3	1669	62.55268286207	1
3	1681	62.836778181703	1
3	1684	62.858412143873	1
3	1714	63.474402222671	1
3	1720	63.57657307123	1
3	1730	63.727229844717	1
3	1758	64.597628117393	1
3	1765	64.705075344898	1
3	1772	64.802678702202	1
3	1775	64.878234680303	1
3	1781	64.960381215078	1
3	1789	65.000345697897	1
3	1802	65.239750044489	1
3	1818	65.794935751016	1
3	1838	66.159373988366	1
3	1872	67.281999143433	1
3	1890	67.940049804542	1
3	1900	68.180585325673	1
3	1918	69.068965612403	1
3	1921	69.088436415453	1
3	1926	69.259102415118	1
3	1962	70.089904345302	1
3	1983	71.411082769121	1
3	1994	71.767257631141	1
3	1997	71.779980484075	1
3	2001	71.820616165093	1
3	2029	72.079226197067	1
3	2057	73.363913121976	1
3	2064	73.4863900442	1
3	2087	74.383371985003	1
3	2097	74.614248156529	1
3	2100	74.616764017166	1
3	2116	74.939717956908	1
3	2125	75.074736539827	1
3	2141	75.453924857927	1
3	2164	76.173172934867	1
3	2178	76.467437601357	1
3	2191	76.679354064927	1
3	2197	76.811972370335	1
3	2214	77.249770564798	1
3	2223	77.384059971539	1
3	2226	77.404665865178	1
3	2237	77.55006690675	1
3	2267	78.48481249314	1
3	2281	79.20308634108	1
3	2298	79.604422053614	1
3	2309	79.900165322972	1
3	2328	80.303291735	1
3	2341	80.785545637734	1
3	2357	81.781065338252	1
3	2376	82.156101575983	1
3	2379	82.160599693758	1
3	2394	82.469810270231	1
3	2409	82.695902170789	1
3	2425	83.425830341371	1
3	2443	83.896004787994	1
3	2458	84.342834921457	1
3	2461	84.422553155059	1
3	2474	84.62079520262	1
3	2478	84.708106325822	1
3	2515	86.651545009717	1
3	2518	86.682288352868	1
3	2524	86.82236740559	1
3	2547	87.269890346758	1
3	2551	87.352056330503	1
3	2582	89.164300769262	1
3	2599	89.689185876906	1
3	2618	90.382548617841	1
3	2629	90.754972290349	1
3	2648	91.216920198489	1
3	2655	91.328186925045	1
3	2674	92.181133779264	1
3	2677	92.244801455917	1
3	2713	94.894598351672	1
3	2726	95.321181897241	1
3	2729	95.343421671752	1
3	2742	95.531248798924	1
3	2749	95.713025312009	1
3	2761	95.772843131275	1
3	2787	96.434993149427	1
3	2804	96.805981764087	1
3	2812	96.894875118514	1
3	2830	97.444831951846	1
3	2858	98.365467438744	1
3	2861	98.386757297931	1
3	2863	98.403438502192	1
3	2887	98.784788174041	1
3	2906	99.780798644406	1
3	2909	99.828780976623	1
3	2920	100.069496181495	1
3	2945	100.931315834032	1
3	2958	101.424870884483	1
3	2973	102.205302425154	1
3	2976	102.209324260412	1
3	2986	102.376624216306	1
3	3011	103.29413643136	1
3	3015	103.352609658503	1
3	3042	104.894247903679	1
3	3078	106.264429435212	1
3	3082	106.359685766016	1
3	3102	106.76046633657	1
3	3130	108.92722152847	1
3	3133	109.006057952579	1
3	3159	110.27412990171	1
3	3167	110.339797338888	1
3	3172	110.379087188191	1
3	3198	111.392677571025	1
3	3217	112.115768965231	1
3	3238	112.550171459994	1
3	3250	112.88431940099	1
3	3259	113.050683286168	1
3	3282	113.836478681595	1
3	3295	114.308164393295	1
3	3314	115.020622311182	1
3	3324	115.227786859308	1
3	3346	116.137180430469	1
3	3365	116.999804405496	1
3	3379	117.248705272535	1
3	3396	117.622388043632	1
3	3420	119.024990806319	1
3	3456	120.871306100842	1
3	3465	121.303942291746	1
3	3482	121.707982891085	1
3	3486	121.731392607399	1
3	3506	123.014689401659	1
3	3551	124.192781499912	1
3	3558	124.350863338053	1
3	3579	124.812598188508	1
3	3592	125.217988082523	1
3	3595	125.225851638911	1
3	3609	125.613439433631	1
3	3629	126.078152392566	1
3	3645	127.000518319952	1
3	3665	128.025699058335	1
3	3668	128.067505248262	1
3	3670	128.11117629993	1
3	3701	129.106209797693	1
3	3721	129.933146209135	1
3	3740	130.83011015497	1
3	3759	131.608606015788	1
3	3769	131.895385345775	1
3	3791	132.814523227174	1
3	3794	132.834945934549	1
3	3818	133.560329425693	1
3	3837	134.362123837926	1
3	3840	134.381060174291	1
3	3857	135.005908865383	1
3	3882	135.869133328086	1
3	3904	137.25096905486	1
3	3917	137.722202380607	1
3	3935	138.17397376327	1
3	3945	138.537505630598	1
3	3976	140.425807092063	1
3	3979	140.494188958826	1
3	3992	140.696987651136	1
3	4022	142.368613522753	1
3	4036	142.596222764471	1
3	4045	142.787699454447	1
3	4060	143.509632004905	1
3	4067	143.61140885063	1
3	4082	144.276111146047	1
3	4089	144.443264878888	1
3	4110	145.154004467017	1
3	4117	145.350284009569	1
3	4146	146.584360908463	1
3	4149	146.624714303544	1
3	4176	147.318302357325	1
3	4189	147.501449023868	1
3	4212	148.131850451474	1
3	4236	149.920572567782	1
3	4256	150.939312247248	1
3	4286	153.058081670576	1
3	4304	153.627866684734	1
3	4311	153.799195534496	1
3	4322	153.997491408393	1
3	4325	154.015815787069	1
3	4346	154.986462938942	1
3	4381	157.01636785305	1
3	4388	157.170734228481	1
3	4403	157.808371958574	1
3	4421	158.477532318205	1
3	4443	159.015108880771	1
3	4462	159.437305324753	1
3	4465	159.525365730516	1
3	4485	159.789004010897	1
3	4498	160.076596926064	1
3	4505	160.184818727197	1
3	4521	160.500851163042	1
3	4540	161.694395602735	1
3	4554	161.920932302245	1
3	4558	161.966931793018	1
3	4563	162.09313040599	1
3	4593	162.988279650024	1
3	4603	163.324205285617	1
3	4623	163.956891378434	1
3	4639	164.806187449574	1
3	4653	165.147141317603	1
3	4674	165.895047619336	1
3	4688	166.494982604442	1
3	4706	166.989662198251	1
3	4713	167.172379943489	1
3	4727	167.5620087652	1
3	4750	168.649592501207	1
3	4769	169.518762504075	1
3	4776	169.626891652642	1
3	4795	169.993332586647	1
3	4810	170.470079292641	1
3	4813	170.471535249836	1
3	4827	170.814151825101	1
3	4843	171.130722691797	1
3	4864	171.745883233752	1
3	4867	171.758276003681	1
3	4881	172.113851625273	1
3	4895	172.513331148328	1
3	4921	174.18932432754	1
3	4950	175.569339776568	1
3	4971	176.624832018682	1
3	4984	177.067846583992	1
3	5009	178.326118145579	1
3	5023	178.567552920707	1
3	5027	178.581798840083	1
3	5040	180.3030988272	1
3	5044	180.39665601541	1
3	5049	180.820832079752	1
3	5053	181.17722058555	1
3	5057	181.302504060949	1