version 3
run BaseVersion-14-20240511-20:48:36-11938
attr configname BaseVersion
attr datetime 20240511-20:48:36
attr datetimef 20240511-204836
attr experiment BaseVersion
attr inifile omnetpp.ini
attr iterationvars $genInterval=0.8
attr iterationvarsd genInterval=0.8
attr iterationvarsf genInterval=0.8-
attr measurement $genInterval=0.8
attr network Network
attr processid 11938
attr repetition 0
attr replication #0
attr resultdir results
attr runnumber 14
attr seedset 14
itervar genInterval 0.8
config network Network
config sim-time-limit 200s
config Network.nodeTx.gen.generationInterval exponential(0.8)
config Network.nodeTx.gen.packetByteSize 12500
config Network.nodeTx.queue.bufferSize 200
config Network.nodeRx.queue.bufferSize 200
config Network.queue.bufferSize 200

vector 0 Network.nodeTx.gen packetGen ETV
vector 1 Network.nodeTx.queue bufferSize ETV
vector 2 Network.queue bufferSize ETV
vector 3 Network.nodeRx.queue bufferSize ETV
vector 4 Network.nodeRx.sink Delay ETV
vector 5 Network.nodeRx.sink packetUsed ETV
0	1	0.577144061132	1
0	12	2.616889028598	1
0	23	3.803715123244	1
0	34	4.664612548188	1
0	45	6.299425455245	1
0	54	6.664346937282	1
0	57	6.670810537485	1
0	64	6.799889861502	1
0	75	7.096434697679	1
0	85	7.276236325065	1
0	105	9.80479245473	1
0	111	10.00560934713	1
0	127	10.581394018442	1
0	136	10.889248463287	1
0	147	11.195762669922	1
0	158	11.557958715697	1
0	171	12.177791545066	1
0	182	12.797299317998	1
0	188	12.997356559827	1
0	204	13.912473800344	1
0	215	15.226378949746	1
0	226	15.838867776699	1
0	235	16.174017691392	1
0	243	16.401494246992	1
0	259	17.020787163927	1
0	270	19.733636015003	1
0	273	19.738348901481	1
0	278	19.869703784384	1
0	299	20.764312992011	1
0	305	20.962015813681	1
0	313	21.150618253607	1
0	325	21.429704513629	1
0	341	23.58688952648	1
0	350	23.925788345056	1
0	361	24.300825104053	1
0	374	28.099600402228	1
0	385	29.216414138528	1
0	391	29.421965482337	1
0	407	30.574190920471	1
0	418	33.554419097611	1
0	429	35.189675284464	1
0	432	35.284532702401	1
0	437	35.377859699559	1
0	446	35.529824122839	1
0	458	35.815269204393	1
0	478	37.100719132249	1
0	489	37.616061164059	1
0	500	39.636360599476	1
0	511	40.530441891067	1
0	522	41.141835484196	1
0	528	41.380121012559	1
0	534	41.461390880138	1
0	553	42.427645220433	1
0	559	42.527753299401	1
0	574	43.383773308505	1
0	580	43.630166692764	1
0	591	43.790888634848	1
0	606	44.804887233042	1
0	615	45.11584795785	1
0	623	45.26529939022	1
0	638	47.013407405242	1
0	649	50.264217389096	1
0	652	50.33384030696	1
0	654	50.355576502881	1
0	678	51.453692058457	1
0	681	51.462997672772	1
0	683	51.514500540862	1
0	707	53.488948803025	1
0	718	54.540816052759	1
0	729	56.26051530978	1
0	740	57.345939037042	1
0	743	57.413893044821	1
0	755	57.833178203118	1
0	771	58.78774646114	1
0	782	62.590960702332	1
0	793	63.527857168255	1
0	804	64.00924161958	1
0	815	67.288336965082	1
0	821	67.456793837596	1
0	836	68.307188404267	1
0	845	68.653819058801	1
0	853	68.822232474303	1
0	868	69.825916871506	1
0	879	71.177967966825	1
0	888	71.531798263843	1
0	899	71.891967452521	1
0	904	71.934366248532	1
0	906	71.966910871281	1
0	918	72.270654029357	1
0	940	76.716937085434	1
0	951	82.100363775638	1
0	962	83.0123469835	1
0	968	83.283981977174	1
0	984	84.347434492627	1
0	995	84.843048381348	1
0	1006	85.708947339819	1
0	1017	86.772177499038	1
0	1026	87.089129004996	1
0	1039	89.390478487272	1
0	1050	90.439327345143	1
0	1056	90.593615397325	1
0	1064	90.75605792425	1
0	1074	90.947091584308	1
0	1089	91.428777308256	1
0	1097	91.542468479265	1
0	1105	91.742354010086	1
0	1115	91.929597490519	1
0	1132	92.483776007459	1
0	1143	96.840847618219	1
0	1154	97.841203194925	1
0	1160	98.067779050442	1
0	1169	98.22713670646	1
0	1174	98.320411539925	1
0	1195	100.228979201257	1
0	1206	100.787217977209	1
0	1209	100.87896119722	1
0	1224	101.366185181859	1
0	1237	102.415180869225	1
0	1248	103.476063778047	1
0	1259	104.642523286575	1
0	1270	105.418579387636	1
0	1279	105.742015812834	1
0	1292	106.518339313506	1
0	1303	107.642289182381	1
0	1309	107.772466820711	1
0	1324	108.946701808543	1
0	1335	109.564929665577	1
0	1346	110.30265617962	1
0	1352	110.405238616095	1
0	1367	111.128734715754	1
0	1373	111.26160248707	1
0	1388	113.040073134703	1
0	1399	113.518602503972	1
0	1402	113.59396086527	1
0	1417	114.042355086696	1
0	1430	114.755071085888	1
0	1441	115.813462595861	1
0	1452	116.566462663529	1
0	1455	116.62759743479	1
0	1465	116.906895976732	1
0	1477	117.168351283999	1
0	1493	118.053772039817	1
0	1499	118.198312393979	1
0	1514	119.873514170023	1
0	1525	120.441078750765	1
0	1536	121.11241214687	1
0	1547	121.804987493529	1
0	1558	122.624249036516	1
0	1569	123.438482507038	1
0	1575	123.62653555263	1
0	1583	123.819200499112	1
0	1600	124.995116513445	1
0	1611	125.427564036193	1
0	1617	125.641771909561	1
0	1633	126.144880130924	1
0	1644	127.158181824678	1
0	1647	127.227560454628	1
0	1659	127.618923111712	1
0	1675	128.294607075504	1
0	1678	128.342909037194	1
0	1685	128.550462140578	1
0	1691	128.607627073054	1
0	1693	128.636733990163	1
0	1723	129.970154439301	1
0	1734	132.641392615719	1
0	1740	132.940762598191	1
0	1746	133.002837786389	1
0	1760	133.41094760531	1
0	1776	134.459838467694	1
0	1782	134.718479261482	1
0	1798	135.277215988352	1
0	1807	135.649173071368	1
0	1812	135.72692015307	1
0	1829	137.159514344972	1
0	1840	137.753299164421	1
0	1851	139.871360223622	1
0	1862	140.326997323291	1
0	1868	140.553490314578	1
0	1884	141.188777833472	1
0	1887	141.200541966085	1
0	1904	143.387322094699	1
0	1915	145.77605487229	1
0	1926	150.022797167734	1
0	1937	151.936730509594	1
0	1948	152.805251209607	1
0	1951	152.868631265831	1
0	1963	153.218357231324	1
0	1979	153.829339732616	1
0	1990	154.291991171615	1
0	2001	155.151949201099	1
0	2012	156.347109426004	1
0	2023	159.335495270153	1
0	2034	160.128070998487	1
0	2045	160.636777721532	1
0	2048	160.719282274934	1
0	2065	162.010020270809	1
0	2076	162.853511480791	1
0	2087	163.546446644444	1
0	2098	166.315612500025	1
0	2109	168.641022116177	1
0	2115	168.857369553181	1
0	2131	169.730667928024	1
0	2140	170.129685118091	1
0	2145	170.176370666703	1
0	2150	170.245396894184	1
0	2159	170.528304180029	1
0	2181	171.916081988532	1
0	2190	172.236926832601	1
0	2198	172.510351739601	1
0	2209	172.649209216717	1
0	2214	172.79250871519	1
0	2217	172.806650789791	1
0	2226	172.949124842244	1
0	2252	174.271774294262	1
0	2258	174.532318179553	1
0	2269	174.829440856566	1
0	2275	174.835110919727	1
0	2294	176.022695573729	1
0	2305	177.12775886884	1
0	2311	177.252903350111	1
0	2326	178.79120865093	1
0	2332	178.975751612144	1
0	2347	181.055493276991	1
0	2353	181.326185890517	1
0	2364	181.613980937604	1
0	2380	182.326584912191	1
0	2391	182.840746458667	1
0	2402	184.574751672727	1
0	2413	185.653381848509	1
0	2416	185.73831306399	1
0	2433	186.579628597953	1
0	2444	187.843799441929	1
0	2450	188.092961572882	1
0	2466	188.97706401667	1
0	2475	189.371545942841	1
0	2488	191.085919416725	1
0	2499	192.971053201972	1
0	2502	193.030185860073	1
0	2519	194.080151737308	1
0	2525	194.194642700507	1
0	2528	194.258090400827	1
0	2532	194.309621810916	1
0	2541	194.494439688561	1
0	2567	195.632639783248	1
0	2578	197.38632231151	1
0	2589	197.869542164046	1
0	2600	198.295324725429	1
0	2606	198.451717793978	1
0	2614	198.634756398744	1
0	2631	199.304062117254	1
0	2640	199.644920553788	1
1	2	0.577144061132	1
1	13	2.616889028598	1
1	24	3.803715123244	1
1	35	4.664612548188	1
1	46	6.299425455245	1
1	55	6.664346937282	1
1	58	6.670810537485	1
1	65	6.799889861502	1
1	76	7.096434697679	1
1	86	7.276236325065	1
1	106	9.80479245473	1
1	112	10.00560934713	1
1	128	10.581394018442	1
1	137	10.889248463287	1
1	148	11.195762669922	1
1	159	11.557958715697	1
1	172	12.177791545066	1
1	183	12.797299317998	1
1	189	12.997356559827	1
1	205	13.912473800344	1
1	216	15.226378949746	1
1	227	15.838867776699	1
1	236	16.174017691392	1
1	244	16.401494246992	1
1	260	17.020787163927	1
1	271	19.733636015003	1
1	274	19.738348901481	1
1	279	19.869703784384	1
1	300	20.764312992011	1
1	306	20.962015813681	1
1	314	21.150618253607	1
1	326	21.429704513629	1
1	342	23.58688952648	1
1	351	23.925788345056	1
1	362	24.300825104053	1
1	375	28.099600402228	1
1	386	29.216414138528	1
1	392	29.421965482337	1
1	408	30.574190920471	1
1	419	33.554419097611	1
1	430	35.189675284464	1
1	433	35.284532702401	1
1	438	35.377859699559	1
1	447	35.529824122839	1
1	459	35.815269204393	1
1	479	37.100719132249	1
1	490	37.616061164059	1
1	501	39.636360599476	1
1	512	40.530441891067	1
1	523	41.141835484196	1
1	529	41.380121012559	1
1	535	41.461390880138	1
1	554	42.427645220433	1
1	560	42.527753299401	1
1	575	43.383773308505	1
1	581	43.630166692764	1
1	592	43.790888634848	1
1	607	44.804887233042	1
1	616	45.11584795785	1
1	624	45.26529939022	1
1	639	47.013407405242	1
1	650	50.264217389096	1
1	653	50.33384030696	1
1	655	50.355576502881	2
1	679	51.453692058457	1
1	682	51.462997672772	1
1	684	51.514500540862	2
1	708	53.488948803025	1
1	719	54.540816052759	1
1	730	56.26051530978	1
1	741	57.345939037042	1
1	744	57.413893044821	1
1	756	57.833178203118	1
1	772	58.78774646114	1
1	783	62.590960702332	1
1	794	63.527857168255	1
1	805	64.00924161958	1
1	816	67.288336965082	1
1	822	67.456793837596	1
1	837	68.307188404267	1
1	846	68.653819058801	1
1	854	68.822232474303	1
1	869	69.825916871506	1
1	880	71.177967966825	1
1	889	71.531798263843	1
1	900	71.891967452521	1
1	905	71.934366248532	1
1	907	71.966910871281	2
1	919	72.270654029357	1
1	941	76.716937085434	1
1	952	82.100363775638	1
1	963	83.0123469835	1
1	969	83.283981977174	1
1	985	84.347434492627	1
1	996	84.843048381348	1
1	1007	85.708947339819	1
1	1018	86.772177499038	1
1	1027	87.089129004996	1
1	1040	89.390478487272	1
1	1051	90.439327345143	1
1	1057	90.593615397325	1
1	1065	90.75605792425	1
1	1075	90.947091584308	1
1	1090	91.428777308256	1
1	1098	91.542468479265	1
1	1106	91.742354010086	1
1	1116	91.929597490519	1
1	1133	92.483776007459	1
1	1144	96.840847618219	1
1	1155	97.841203194925	1
1	1161	98.067779050442	1
1	1170	98.22713670646	1
1	1175	98.320411539925	1
1	1196	100.228979201257	1
1	1207	100.787217977209	1
1	1210	100.87896119722	1
1	1225	101.366185181859	1
1	1238	102.415180869225	1
1	1249	103.476063778047	1
1	1260	104.642523286575	1
1	1271	105.418579387636	1
1	1280	105.742015812834	1
1	1293	106.518339313506	1
1	1304	107.642289182381	1
1	1310	107.772466820711	1
1	1325	108.946701808543	1
1	1336	109.564929665577	1
1	1347	110.30265617962	1
1	1353	110.405238616095	1
1	1368	111.128734715754	1
1	1374	111.26160248707	1
1	1389	113.040073134703	1
1	1400	113.518602503972	1
1	1403	113.59396086527	1
1	1418	114.042355086696	1
1	1431	114.755071085888	1
1	1442	115.813462595861	1
1	1453	116.566462663529	1
1	1456	116.62759743479	1
1	1466	116.906895976732	1
1	1478	117.168351283999	1
1	1494	118.053772039817	1
1	1500	118.198312393979	1
1	1515	119.873514170023	1
1	1526	120.441078750765	1
1	1537	121.11241214687	1
1	1548	121.804987493529	1
1	1559	122.624249036516	1
1	1570	123.438482507038	1
1	1576	123.62653555263	1
1	1584	123.819200499112	1
1	1601	124.995116513445	1
1	1612	125.427564036193	1
1	1618	125.641771909561	1
1	1634	126.144880130924	1
1	1645	127.158181824678	1
1	1648	127.227560454628	1
1	1660	127.618923111712	1
1	1676	128.294607075504	1
1	1679	128.342909037194	1
1	1686	128.550462140578	1
1	1692	128.607627073054	1
1	1694	128.636733990163	2
1	1724	129.970154439301	1
1	1735	132.641392615719	1
1	1741	132.940762598191	1
1	1747	133.002837786389	1
1	1761	133.41094760531	1
1	1777	134.459838467694	1
1	1783	134.718479261482	1
1	1799	135.277215988352	1
1	1808	135.649173071368	1
1	1813	135.72692015307	1
1	1830	137.159514344972	1
1	1841	137.753299164421	1
1	1852	139.871360223622	1
1	1863	140.326997323291	1
1	1869	140.553490314578	1
1	1885	141.188777833472	1
1	1888	141.200541966085	1
1	1905	143.387322094699	1
1	1916	145.77605487229	1
1	1927	150.022797167734	1
1	1938	151.936730509594	1
1	1949	152.805251209607	1
1	1952	152.868631265831	1
1	1964	153.218357231324	1
1	1980	153.829339732616	1
1	1991	154.291991171615	1
1	2002	155.151949201099	1
1	2013	156.347109426004	1
1	2024	159.335495270153	1
1	2035	160.128070998487	1
1	2046	160.636777721532	1
1	2049	160.719282274934	1
1	2066	162.010020270809	1
1	2077	162.853511480791	1
1	2088	163.546446644444	1
1	2099	166.315612500025	1
1	2110	168.641022116177	1
1	2116	168.857369553181	1
1	2132	169.730667928024	1
1	2141	170.129685118091	1
1	2146	170.176370666703	1
1	2151	170.245396894184	1
1	2160	170.528304180029	1
1	2182	171.916081988532	1
1	2191	172.236926832601	1
1	2199	172.510351739601	1
1	2210	172.649209216717	1
1	2215	172.79250871519	1
1	2218	172.806650789791	1
1	2227	172.949124842244	1
1	2253	174.271774294262	1
1	2259	174.532318179553	1
1	2270	174.829440856566	1
1	2276	174.835110919727	1
1	2295	176.022695573729	1
1	2306	177.12775886884	1
1	2312	177.252903350111	1
1	2327	178.79120865093	1
1	2333	178.975751612144	1
1	2348	181.055493276991	1
1	2354	181.326185890517	1
1	2365	181.613980937604	1
1	2381	182.326584912191	1
1	2392	182.840746458667	1
1	2403	184.574751672727	1
1	2414	185.653381848509	1
1	2417	185.73831306399	1
1	2434	186.579628597953	1
1	2445	187.843799441929	1
1	2451	188.092961572882	1
1	2467	188.97706401667	1
1	2476	189.371545942841	1
1	2489	191.085919416725	1
1	2500	192.971053201972	1
1	2503	193.030185860073	1
1	2520	194.080151737308	1
1	2526	194.194642700507	1
1	2529	194.258090400827	1
1	2533	194.309621810916	1
1	2542	194.494439688561	1
1	2568	195.632639783248	1
1	2579	197.38632231151	1
1	2590	197.869542164046	1
1	2601	198.295324725429	1
1	2607	198.451717793978	1
1	2615	198.634756398744	1
1	2632	199.304062117254	1
1	2641	199.644920553788	1
2	5	0.677244061132	1
2	16	2.716989028598	1
2	27	3.903815123244	1
2	38	4.764712548188	1
2	49	6.399525455245	1
2	62	6.764446937282	1
2	67	6.864446937282	1
2	70	6.964446937282	1
2	82	7.196534697679	1
2	92	7.376336325065	1
2	109	9.90489245473	1
2	118	10.10570934713	1
2	131	10.681494018442	1
2	142	10.989348463287	1
2	153	11.295862669922	1
2	164	11.658058715697	1
2	175	12.277891545066	1
2	186	12.897399317998	1
2	193	13.097456559827	1
2	208	14.012573800344	1
2	219	15.326478949746	1
2	230	15.938967776699	1
2	241	16.274117691392	1
2	250	16.501594246992	1
2	263	17.120887163927	1
2	276	19.833736015003	1
2	281	19.933736015003	1
2	284	20.033736015003	1
2	303	20.864412992011	1
2	309	21.062115813681	1
2	319	21.250718253607	1
2	332	21.529804513629	1
2	345	23.68698952648	1
2	356	24.025888345056	1
2	367	24.400925104053	1
2	378	28.199700402228	1
2	389	29.316514138528	1
2	398	29.522065482337	1
2	411	30.674290920471	1
2	422	33.654519097611	1
2	435	35.289775284464	1
2	440	35.389775284464	1
2	443	35.489775284464	1
2	452	35.629924122839	2
2	465	35.915369204393	1
2	482	37.200819132249	1
2	493	37.716161164059	1
2	504	39.736460599476	1
2	515	40.630541891067	1
2	526	41.241935484196	1
2	537	41.480221012559	1
2	542	41.580221012559	1
2	557	42.527745220433	1
2	563	42.627853299401	1
2	578	43.483873308505	1
2	587	43.730266692764	1
2	595	43.890988634848	1
2	610	44.904987233042	1
2	621	45.21594795785	1
2	627	45.36539939022	1
2	642	47.113507405242	1
2	657	50.364317389096	1
2	660	50.464317389096	1
2	663	50.564317389096	1
2	686	51.553792058457	1
2	689	51.653792058457	1
2	692	51.753792058457	1
2	711	53.589048803025	1
2	722	54.640916052759	1
2	733	56.36061530978	1
2	746	57.446039037042	1
2	749	57.546039037042	1
2	762	57.933278203118	1
2	775	58.88784646114	1
2	786	62.691060702332	1
2	797	63.627957168255	1
2	808	64.10934161958	1
2	819	67.388436965082	1
2	825	67.556893837596	1
2	840	68.407288404267	1
2	851	68.753919058801	1
2	857	68.922332474303	1
2	872	69.926016871506	1
2	883	71.278067966825	1
2	894	71.631898263843	1
2	909	71.992067452521	1
2	912	72.092067452521	1
2	915	72.192067452521	1
2	924	72.370754029357	2
2	944	76.817037085434	1
2	955	82.200463775638	1
2	966	83.1124469835	1
2	975	83.384081977174	1
2	988	84.447534492627	1
2	999	84.943148381348	1
2	1010	85.809047339819	1
2	1021	86.872277499038	1
2	1032	87.189229004996	1
2	1043	89.490578487272	1
2	1054	90.539427345143	1
2	1060	90.693715397325	1
2	1070	90.85615792425	1
2	1080	91.047191584308	1
2	1095	91.528877308256	1
2	1101	91.642568479265	1
2	1111	91.842454010086	1
2	1121	92.029697490519	1
2	1136	92.583876007459	1
2	1147	96.940947618219	1
2	1158	97.941303194925	1
2	1167	98.167879050442	1
2	1177	98.32723670646	1
2	1182	98.42723670646	1
2	1199	100.329079201257	1
2	1212	100.887317977209	1
2	1215	100.987317977209	1
2	1230	101.466285181859	1
2	1241	102.515280869225	1
2	1252	103.576163778047	1
2	1263	104.742623286575	1
2	1274	105.518679387636	1
2	1285	105.842115812834	1
2	1296	106.618439313506	1
2	1307	107.742389182381	1
2	1313	107.872566820711	1
2	1328	109.046801808543	1
2	1339	109.665029665577	1
2	1350	110.40275617962	1
2	1356	110.505338616095	1
2	1371	111.228834715754	1
2	1377	111.36170248707	1
2	1392	113.140173134703	1
2	1405	113.618702503972	1
2	1408	113.718702503972	1
2	1423	114.142455086696	1
2	1434	114.855171085888	1
2	1445	115.913562595861	1
2	1458	116.666562663529	1
2	1461	116.766562663529	1
2	1471	117.006995976732	1
2	1484	117.268451283999	1
2	1497	118.153872039817	1
2	1503	118.298412393979	1
2	1518	119.973614170023	1
2	1529	120.541178750765	1
2	1540	121.21251214687	1
2	1551	121.905087493529	1
2	1562	122.724349036516	1
2	1573	123.538582507038	1
2	1579	123.72663555263	1
2	1589	123.919300499112	1
2	1604	125.095216513445	1
2	1615	125.527664036193	1
2	1624	125.741871909561	1
2	1637	126.244980130924	1
2	1650	127.258281824678	1
2	1653	127.358281824678	1
2	1666	127.719023111712	1
2	1681	128.394707075504	1
2	1684	128.494707075504	1
2	1696	128.650562140578	1
2	1700	128.750562140578	2
2	1705	128.850562140578	2
2	1727	130.070254439301	1
2	1738	132.741492615719	1
2	1749	133.040862598191	1
2	1754	133.140862598191	1
2	1767	133.51104760531	1
2	1780	134.559938467694	1
2	1789	134.818579261482	1
2	1802	135.377315988352	1
2	1815	135.749273071368	1
2	1818	135.849273071368	1
2	1833	137.259614344972	1
2	1844	137.853399164421	1
2	1855	139.971460223622	1
2	1866	140.427097323291	1
2	1875	140.653590314578	1
2	1890	141.288877833472	1
2	1893	141.388877833472	1
2	1908	143.487422094699	1
2	1919	145.87615487229	1
2	1930	150.122897167734	1
2	1941	152.036830509594	1
2	1954	152.905351209607	1
2	1957	153.005351209607	1
2	1970	153.318457231324	1
2	1983	153.929439732616	1
2	1994	154.392091171615	1
2	2005	155.252049201099	1
2	2016	156.447209426004	1
2	2027	159.435595270153	1
2	2038	160.228170998487	1
2	2051	160.736877721532	1
2	2054	160.836877721532	1
2	2069	162.110120270809	1
2	2080	162.953611480791	1
2	2091	163.646546644444	1
2	2102	166.415712500025	1
2	2113	168.741122116177	1
2	2122	168.957469553181	1
2	2135	169.830767928024	1
2	2148	170.229785118091	1
2	2153	170.329785118091	1
2	2156	170.429785118091	1
2	2165	170.628404180029	2
2	2185	172.016181988532	1
2	2196	172.337026832601	1
2	2205	172.610451739601	1
2	2213	172.749309216717	1
2	2223	172.89260871519	1
2	2229	172.99260871519	2
2	2234	173.09260871519	2
2	2256	174.371874294262	1
2	2265	174.632418179553	1
2	2278	174.929540856566	1
2	2283	175.029540856566	1
2	2298	176.122795573729	1
2	2309	177.22785886884	1
2	2315	177.353003350111	1
2	2330	178.89130865093	1
2	2336	179.075851612144	1
2	2351	181.155593276991	1
2	2360	181.426285890517	1
2	2371	181.714080937604	1
2	2384	182.426684912191	1
2	2395	182.940846458667	1
2	2406	184.674851672727	1
2	2419	185.753481848509	1
2	2422	185.853481848509	1
2	2437	186.679728597953	1
2	2448	187.943899441929	1
2	2457	188.193061572882	1
2	2470	189.07716401667	1
2	2481	189.471645942841	1
2	2492	191.186019416725	1
2	2505	193.071153201972	1
2	2508	193.171153201972	1
2	2523	194.180251737308	1
2	2531	194.294742700507	1
2	2538	194.394742700507	1
2	2544	194.494742700507	2
2	2549	194.594742700507	2
2	2571	195.732739783248	1
2	2582	197.48642231151	1
2	2593	197.969642164046	1
2	2604	198.395424725429	1
2	2610	198.551817793978	1
2	2620	198.734856398744	1
2	2635	199.404162117254	1
2	2646	199.745020553788	1
3	8	0.877344061132	1
3	19	2.917089028598	1
3	30	4.103915123244	1
3	41	4.964812548188	1
3	52	6.599625455245	1
3	71	6.964546937282	1
3	79	7.164546937282	1
3	89	7.364546937282	1
3	96	7.564546937282	1
3	101	7.764546937282	1
3	115	10.10499245473	1
3	123	10.30580934713	1
3	134	10.881594018442	1
3	145	11.189448463287	1
3	156	11.495962669922	1
3	167	11.858158715697	1
3	178	12.477991545066	1
3	195	13.097499317998	1
3	200	13.297556559827	1
3	211	14.212673800344	1
3	222	15.526578949746	1
3	233	16.139067776699	1
3	247	16.474217691392	1
3	255	16.701694246992	1
3	266	17.320987163927	1
3	285	20.033836015003	1
3	290	20.233836015003	1
3	295	20.433836015003	1
3	311	21.064512992011	1
3	321	21.264512992011	1
3	329	21.464512992011	1
3	337	21.729904513629	1
3	348	23.88708952648	1
3	359	24.225988345056	1
3	370	24.601025104053	1
3	381	28.399800402228	1
3	395	29.516614138528	1
3	403	29.722165482337	1
3	414	30.874390920471	1
3	425	33.854619097611	1
3	444	35.489875284464	1
3	454	35.689875284464	1
3	462	35.889875284464	1
3	469	36.089875284464	1
3	474	36.289875284464	1
3	485	37.400919132249	1
3	496	37.916261164059	1
3	507	39.936560599476	1
3	518	40.830641891067	1
3	532	41.442035484196	1
3	544	41.680321012559	1
3	549	41.880321012559	1
3	565	42.727845220433	1
3	570	42.927845220433	1
3	584	43.683973308505	1
3	597	43.930366692764	1
3	602	44.130366692764	1
3	613	45.105087233042	1
3	629	45.41604795785	1
3	634	45.61604795785	1
3	645	47.313607405242	1
3	664	50.564417389096	1
3	669	50.764417389096	1
3	674	50.964417389096	1
3	693	51.753892058457	1
3	698	51.953892058457	1
3	703	52.153892058457	1
3	714	53.789148803025	1
3	725	54.841016052759	1
3	736	56.56071530978	1
3	751	57.646139037042	1
3	759	57.846139037042	1
3	767	58.133378203118	1
3	778	59.08794646114	1
3	789	62.891160702332	1
3	800	63.828057168255	1
3	811	64.30944161958	1
3	827	67.588536965082	1
3	832	67.788536965082	1
3	843	68.607388404267	1
3	859	68.954019058801	1
3	864	69.154019058801	1
3	875	70.126116871506	1
3	886	71.478167966825	1
3	897	71.831998263843	1
3	916	72.192167452521	1
3	926	72.392167452521	1
3	931	72.592167452521	1
3	936	72.792167452521	1
3	947	77.017137085434	1
3	958	82.400563775638	1
3	972	83.3125469835	1
3	980	83.584181977174	1
3	991	84.647634492627	1
3	1002	85.143248381348	1
3	1013	86.009147339819	1
3	1024	87.072377499038	1
3	1035	87.389329004996	1
3	1046	89.690678487272	1
3	1062	90.739527345143	1
3	1072	90.939527345143	1
3	1082	91.139527345143	1
3	1087	91.339527345143	1
3	1103	91.728977308256	1
3	1113	91.928977308256	1
3	1123	92.128977308256	1
3	1128	92.328977308256	1
3	1139	92.783976007459	1
3	1150	97.141047618219	1
3	1164	98.141403194925	1
3	1179	98.367979050442	1
3	1186	98.567979050442	1
3	1191	98.767979050442	1
3	1202	100.529179201257	1
3	1217	101.087417977209	1
3	1222	101.287417977209	1
3	1233	101.666385181859	1
3	1244	102.715380869225	1
3	1255	103.776263778047	1
3	1266	104.942723286575	1
3	1277	105.718779387636	1
3	1288	106.042215812834	1
3	1299	106.818539313506	1
3	1315	107.942489182381	1
3	1320	108.142489182381	1
3	1331	109.246901808543	1
3	1342	109.865129665577	1
3	1358	110.60285617962	1
3	1363	110.80285617962	1
3	1379	111.428934715754	1
3	1384	111.628934715754	1
3	1395	113.340273134703	1
3	1410	113.818802503972	1
3	1415	114.018802503972	1
3	1426	114.342555086696	1
3	1437	115.055271085888	1
3	1448	116.113662595861	1
3	1463	116.866662663529	1
3	1473	117.066662663529	1
3	1481	117.266662663529	1
3	1489	117.468551283999	1
3	1505	118.353972039817	1
3	1510	118.553972039817	1
3	1521	120.173714170023	1
3	1532	120.741278750765	1
3	1543	121.41261214687	1
3	1554	122.105187493529	1
3	1565	122.924449036516	1
3	1581	123.738682507038	1
3	1591	123.938682507038	1
3	1596	124.138682507038	1
3	1607	125.295316513445	1
3	1621	125.727764036193	1
3	1629	125.941971909561	1
3	1640	126.445080130924	1
3	1655	127.458381824678	1
3	1663	127.658381824678	1
3	1671	127.919123111712	1
3	1689	128.594807075504	1
3	1702	128.794807075504	1
3	1709	128.994807075504	1
3	1714	129.194807075504	1
3	1719	129.394807075504	1
3	1730	130.270354439301	1
3	1744	132.941592615719	1
3	1756	133.240962598191	1
3	1764	133.440962598191	1
3	1772	133.71114760531	1
3	1786	134.760038467694	1
3	1794	135.018679261482	1
3	1805	135.577415988352	1
3	1820	135.949373071368	1
3	1825	136.149373071368	1
3	1836	137.459714344972	1
3	1847	138.053499164421	1
3	1858	140.171560223622	1
3	1872	140.627197323291	1
3	1880	140.853690314578	1
3	1895	141.488977833472	1
3	1900	141.688977833472	1
3	1911	143.687522094699	1
3	1922	146.07625487229	1
3	1933	150.322997167734	1
3	1944	152.236930509594	1
3	1959	153.105451209607	1
3	1967	153.305451209607	1
3	1975	153.518557231324	1
3	1986	154.129539732616	1
3	1997	154.592191171615	1
3	2008	155.452149201099	1
3	2019	156.647309426004	1
3	2030	159.635695270153	1
3	2041	160.428270998487	1
3	2056	160.936977721532	1
3	2061	161.136977721532	1
3	2072	162.310220270809	1
3	2083	163.153711480791	1
3	2094	163.846646644444	1
3	2105	166.615812500025	1
3	2119	168.941222116177	1
3	2127	169.157569553181	1
3	2138	170.030867928024	1
3	2157	170.429885118091	1
3	2167	170.629885118091	1
3	2172	170.829885118091	1
3	2177	171.029885118091	1
3	2188	172.216281988532	1
3	2202	172.537126832601	1
3	2220	172.810551739601	1
3	2231	173.010551739601	1
3	2238	173.210551739601	1
3	2243	173.410551739601	1
3	2248	173.610551739601	1
3	2262	174.571974294262	1
3	2273	174.832518179553	1
3	2285	175.129640856566	1
3	2290	175.329640856566	1
3	2301	176.322895573729	1
3	2317	177.42795886884	1
3	2322	177.62795886884	1
3	2338	179.09140865093	1
3	2343	179.29140865093	1
3	2357	181.355693276991	1
3	2368	181.626385890517	1
3	2376	181.914180937604	1
3	2387	182.626784912191	1
3	2398	183.140946458667	1
3	2409	184.874951672727	1
3	2424	185.953581848509	1
3	2429	186.153581848509	1
3	2440	186.879828597953	1
3	2454	188.143999441929	1
3	2462	188.393161572882	1
3	2473	189.27726401667	1
3	2484	189.671745942841	1
3	2495	191.386119416725	1
3	2510	193.271253201972	1
3	2515	193.471253201972	1
3	2535	194.380351737308	1
3	2546	194.580351737308	1
3	2553	194.780351737308	1
3	2558	194.980351737308	1
3	2563	195.180351737308	1
3	2574	195.932839783248	1
3	2585	197.68652231151	1
3	2596	198.169742164046	1
3	2612	198.595524725429	1
3	2622	198.795524725429	1
3	2627	198.995524725429	1
3	2638	199.604262117254	1
3	2649	199.945120553788	1
4	10	0.977344061132	0.4002
4	21	3.017089028598	0.4002
4	32	4.203915123244	0.4002
4	43	5.064812548188	0.4002
4	59	6.699625455245	0.4002
4	73	7.064546937282	0.4002
4	83	7.264546937282	0.593736399797
4	93	7.464546937282	0.66465707578
4	98	7.664546937282	0.568112239603
4	103	7.864546937282	0.588310612217
4	120	10.20499245473	0.4002
4	125	10.40580934713	0.4002
4	139	10.981594018442	0.4002
4	150	11.289448463287	0.4002
4	161	11.595962669922	0.4002
4	169	11.958158715697	0.4002
4	180	12.577991545066	0.4002
4	197	13.197499317998	0.4002
4	202	13.397556559827	0.4002
4	213	14.312673800344	0.4002
4	224	15.626578949746	0.4002
4	238	16.239067776699	0.4002
4	252	16.574217691392	0.4002
4	257	16.801694246992	0.4002
4	268	17.420987163927	0.4002
4	287	20.133836015003	0.4002
4	292	20.333836015003	0.595487113522
4	297	20.533836015003	0.664132230619
4	316	21.164512992011	0.4002
4	323	21.364512992011	0.40249717833
4	334	21.564512992011	0.413894738404
4	339	21.829904513629	0.4002
4	353	23.98708952648	0.4002
4	364	24.325988345056	0.4002
4	372	24.701025104053	0.4002
4	383	28.499800402228	0.4002
4	400	29.616614138528	0.4002
4	405	29.822165482337	0.4002
4	416	30.974390920471	0.4002
4	427	33.954619097611	0.4002
4	449	35.589875284464	0.4002
4	456	35.789875284464	0.505342582063
4	466	35.989875284464	0.612015584905
4	471	36.189875284464	0.660051161625
4	476	36.389875284464	0.574606080071
4	487	37.500919132249	0.4002
4	498	38.016261164059	0.4002
4	509	40.036560599476	0.4002
4	520	40.930641891067	0.4002
4	539	41.542035484196	0.4002
4	546	41.780321012559	0.4002
4	551	41.980321012559	0.518930132421
4	567	42.827845220433	0.4002
4	572	43.027845220433	0.500091921032
4	589	43.783973308505	0.4002
4	599	44.030366692764	0.4002
4	604	44.230366692764	0.439478057916
4	618	45.205087233042	0.4002
4	631	45.51604795785	0.4002
4	636	45.71604795785	0.45074856763
4	647	47.413607405242	0.4002
4	666	50.664417389096	0.4002
4	671	50.864417389096	0.530577082136
4	676	51.064417389096	0.708840886215
4	695	51.853892058457	0.4002
4	700	52.053892058457	0.590894385685
4	705	52.253892058457	0.739391517595
4	716	53.889148803025	0.4002
4	727	54.941016052759	0.4002
4	738	56.66071530978	0.4002
4	753	57.746139037042	0.4002
4	764	57.946139037042	0.532245992221
4	769	58.233378203118	0.4002
4	780	59.18794646114	0.4002
4	791	62.991160702332	0.4002
4	802	63.928057168255	0.4002
4	813	64.40944161958	0.4002
4	829	67.688536965082	0.4002
4	834	67.888536965082	0.431743127486
4	848	68.707388404267	0.4002
4	861	69.054019058801	0.4002
4	866	69.254019058801	0.431786584498
4	877	70.226116871506	0.4002
4	891	71.578167966825	0.4002
4	902	71.931998263843	0.4002
4	921	72.292167452521	0.4002
4	928	72.492167452521	0.557801203989
4	933	72.692167452521	0.72525658124
4	938	72.892167452521	0.621513423164
4	949	77.117137085434	0.4002
4	960	82.500563775638	0.4002
4	977	83.4125469835	0.4002
4	982	83.684181977174	0.4002
4	993	84.747634492627	0.4002
4	1004	85.243248381348	0.4002
4	1015	86.109147339819	0.4002
4	1029	87.172377499038	0.4002
4	1037	87.489329004996	0.4002
4	1048	89.790678487272	0.4002
4	1067	90.839527345143	0.4002
4	1077	91.039527345143	0.445911947818
4	1084	91.239527345143	0.483469420893
4	1092	91.439527345143	0.492435760835
4	1108	91.828977308256	0.4002
4	1118	92.028977308256	0.486508828991
4	1125	92.228977308256	0.48662329817
4	1130	92.428977308256	0.499379817737
4	1141	92.883976007459	0.4002
4	1152	97.241047618219	0.4002
4	1172	98.241403194925	0.4002
4	1183	98.467979050442	0.4002
4	1188	98.667979050442	0.440842343982
4	1193	98.867979050442	0.547567510517
4	1204	100.629179201257	0.4002
4	1219	101.187417977209	0.4002
4	1227	101.387417977209	0.508456779989
4	1235	101.766385181859	0.4002
4	1246	102.815380869225	0.4002
4	1257	103.876263778047	0.4002
4	1268	105.042723286575	0.4002
4	1282	105.818779387636	0.4002
4	1290	106.142215812834	0.4002
4	1301	106.918539313506	0.4002