version 3
run BaseVersion-15-20240511-20:48:36-11938
attr configname BaseVersion
attr datetime 20240511-20:48:36
attr datetimef 20240511-204836
attr experiment BaseVersion
attr inifile omnetpp.ini
attr iterationvars $genInterval=0.85
attr iterationvarsd genInterval=0.85
attr iterationvarsf genInterval=0.85-
attr measurement $genInterval=0.85
attr network Network
attr processid 11938
attr repetition 0
attr replication #0
attr resultdir results
attr runnumber 15
attr seedset 15
itervar genInterval 0.85
config network Network
config sim-time-limit 200s
config Network.nodeTx.gen.generationInterval exponential(0.85)
config Network.nodeTx.gen.packetByteSize 12500
config Network.nodeTx.queue.bufferSize 200
config Network.nodeRx.queue.bufferSize 200
config Network.queue.bufferSize 200

vector 0 Network.nodeTx.gen packetGen ETV
vector 1 Network.nodeTx.queue bufferSize ETV
vector 2 Network.queue bufferSize ETV
vector 3 Network.nodeRx.queue bufferSize ETV
vector 4 Network.nodeRx.sink Delay ETV
vector 5 Network.nodeRx.sink packetUsed ETV
0	1	1.605878513779	1
0	12	3.033670692803	1
0	18	3.201210290764	1
0	33	3.961882484723	1
0	36	4.009394710251	1
0	41	4.109390969504	1
0	55	4.490780715754	1
0	72	5.941829032776	1
0	78	6.215645291345	1
0	94	8.43619798228	1
0	105	9.077967594149	1
0	108	9.099446788226	1
0	118	9.409838300807	1
0	135	10.878338981365	1
0	144	11.186963270937	1
0	157	12.268756754268	1
0	163	12.369475149015	1
0	171	12.572111188515	1
0	181	12.816526499502	1
0	198	14.566749339626	1
0	209	16.688802195025	1
0	212	16.716882145584	1
0	219	16.977598145022	1
0	239	17.570209466339	1
0	250	18.645498561612	1
0	261	19.325899186667	1
0	272	21.032521625805	1
0	283	24.571378271256	1
0	294	25.970033720731	1
0	305	26.436562648391	1
0	311	26.63751923806	1
0	327	28.161590345905	1
0	333	28.317151760721	1
0	348	29.357459992154	1
0	351	29.398117476146	1
0	368	30.664686980147	1
0	371	30.698874337261	1
0	376	30.804254057951	1
0	385	30.994171352129	1
0	400	31.378395852939	1
0	417	36.930299494772	1
0	428	38.404231874304	1
0	437	38.8007305636	1
0	445	39.055699146062	1
0	461	40.270557205015	1
0	464	40.34829734396	1
0	481	40.893534431057	1
0	492	43.695849203574	1
0	503	44.301702893314	1
0	509	44.573492030696	1
0	525	47.039444718979	1
0	531	47.259418963021	1
0	537	47.357944390632	1
0	556	47.909957975826	1
0	567	48.441771252279	1
0	576	48.802975431287	1
0	584	48.93271345747	1
0	597	49.325895808839	1
0	610	49.982899534142	1
0	621	51.090544513548	1
0	630	51.392503166449	1
0	641	51.759342872185	1
0	654	52.415236075107	1
0	665	53.179875131788	1
0	676	54.111049907646	1
0	687	55.573772537167	1
0	696	55.958885291188	1
0	709	57.613377975369	1
0	720	58.442603526876	1
0	731	59.197939680237	1
0	742	60.072801462541	1
0	753	61.562490417237	1
0	764	62.025481872034	1
0	775	63.034179821921	1
0	786	63.472987506021	1
0	795	63.808376674825	1
0	808	64.229114455979	1
0	814	64.351106726006	1
0	827	64.79412253215	1
0	840	66.371501366936	1
0	843	66.442067299356	1
0	860	67.369217652778	1
0	863	67.418951159455	1
0	880	68.541510031612	1
0	883	68.610843697476	1
0	900	69.366442823329	1
0	911	70.377660887292	1
0	917	70.529916464039	1
0	920	70.555070115585	1
0	939	71.116696014466	1
0	952	71.705008667455	1
0	963	72.815615677817	1
0	969	72.936566097793	1
0	984	74.233256531287	1
0	987	74.259809273037	1
0	994	74.513128984383	1
0	1014	75.380327892382	1
0	1020	75.516778409647	1
0	1035	76.018777579488	1
0	1038	76.064429408631	1
0	1055	79.186706728241	1
0	1064	79.539896418576	1
0	1075	79.880005456222	1
0	1083	80.08545952709	1
0	1092	80.270284267542	1
0	1109	81.506582795929	1
0	1120	82.485918209089	1
0	1131	83.015538689195	1
0	1140	83.383142348136	1
0	1153	85.593954125707	1
0	1164	86.847016462229	1
0	1173	87.198078495204	1
0	1186	88.531944165421	1
0	1189	88.626562570081	1
0	1204	89.125309793564	1
0	1217	90.855248996201	1
0	1223	91.121389913547	1
0	1239	92.564828381921	1
0	1242	92.585393939147	1
0	1249	92.793660075156	1
0	1264	93.188190024913	1
0	1278	93.503308441058	1
0	1283	93.590724517018	1
0	1300	94.419573100442	1
0	1311	95.524742596072	1
0	1322	96.182756408328	1
0	1333	96.705640559572	1
0	1344	98.760225868012	1
0	1355	99.384979299679	1
0	1361	99.665356842976	1
0	1377	100.646099975422	1
0	1388	101.419955713098	1
0	1399	101.890762405198	1
0	1405	102.053854587191	1
0	1420	102.840114173705	1
0	1431	103.760937094871	1
0	1442	105.236889254506	1
0	1453	105.919113051779	1
0	1464	106.430171387472	1
0	1473	106.767763593709	1
0	1486	108.628215777992	1
0	1497	109.169778647502	1
0	1503	109.381406306458	1
0	1506	109.438159734831	1
0	1514	109.534184332305	1
0	1537	110.340816730603	1
0	1540	110.351087134656	1
0	1557	111.618894873637	1
0	1568	113.744168257669	1
0	1579	116.573799669686	1
0	1590	117.4341340975	1
0	1601	121.977108612186	1
0	1607	122.188041493096	1
0	1621	122.556880689563	1
0	1634	123.231001572473	1
0	1645	124.020181772688	1
0	1656	126.175590337135	1
0	1667	127.19093078061	1
0	1678	128.962996608465	1
0	1684	129.188628469739	1
0	1693	129.304651989616	1
0	1700	129.441081497354	1
0	1713	129.748703506029	1
0	1718	129.794938427465	1
0	1732	130.092419923608	1
0	1749	132.478235043462	1
0	1760	133.193842342154	1
0	1766	133.327735038575	1
0	1781	134.484001361419	1
0	1792	135.300936759865	1
0	1801	135.641361961041	1
0	1812	136.037449263753	1
0	1825	136.833148497043	1
0	1836	137.737970243441	1
0	1847	138.354220111175	1
0	1853	138.639565503322	1
0	1869	140.784320194879	1
0	1880	141.326680457373	1
0	1886	141.51780574906	1
0	1889	141.559931742288	1
0	1891	141.561330936617	1
0	1919	142.452871472344	1
0	1922	142.516142139902	1
0	1939	143.505956535396	1
0	1950	143.969699628708	1
0	1961	146.682084579926	1
0	1972	147.269421205809	1
0	1975	147.368174432934	1
0	1992	148.092997658624	1
0	2003	149.489705213289	1
0	2014	151.294578151354	1
0	2020	151.40424203008	1
0	2026	151.594679354613	1
0	2045	153.160754734752	1
0	2056	153.625501053939	1
0	2062	153.813761494413	1
0	2077	156.102245759064	1
0	2088	158.206999802103	1
0	2097	158.59072570208	1
0	2110	159.205723951615	1
0	2113	159.218574127681	1
0	2130	160.489661528798	1
0	2141	162.444544998516	1
0	2152	163.289506658723	1
0	2163	164.101725762824	1
0	2169	164.306924759288	1
0	2185	167.314619104679	1
0	2196	167.790229647199	1
0	2207	168.616308251244	1
0	2218	170.748450830511	1
0	2229	173.088485126093	1
0	2240	174.088814107951	1
0	2251	174.865622968316	1
0	2262	175.82568772446	1
0	2268	175.953174580418	1
0	2283	177.062638938043	1
0	2294	178.026851865738	1
0	2297	178.103067679395	1
0	2314	178.774912063485	1
0	2325	179.669044184116	1
0	2328	179.676766888843	1
0	2345	180.475063562972	1
0	2356	181.742102665618	1
0	2365	182.075038570093	1
0	2373	182.185073992411	1
0	2378	182.341497885991	1
0	2398	182.960769624078	1
0	2404	183.25986806256	1
0	2420	184.191360189541	1
0	2423	184.192289429402	1
0	2440	185.41571776198	1
0	2446	185.658735009925	1
0	2462	188.062676951995	1
0	2473	189.051515243984	1
0	2479	189.164033988484	1
0	2484	189.350087191814	1
0	2494	189.550446583859	1
0	2514	191.161534852817	1
0	2523	191.548037929519	1
0	2536	193.199050104431	1
0	2547	193.635079218882	1
0	2558	194.67877738825	1
0	2569	195.436647114943	1
0	2580	196.092024422169	1
1	2	1.605878513779	1
1	13	3.033670692803	1
1	19	3.201210290764	1
1	34	3.961882484723	1
1	37	4.009394710251	1
1	42	4.109390969504	1
1	56	4.490780715754	1
1	73	5.941829032776	1
1	79	6.215645291345	1
1	95	8.43619798228	1
1	106	9.077967594149	1
1	109	9.099446788226	1
1	119	9.409838300807	1
1	136	10.878338981365	1
1	145	11.186963270937	1
1	158	12.268756754268	1
1	164	12.369475149015	1
1	172	12.572111188515	1
1	182	12.816526499502	1
1	199	14.566749339626	1
1	210	16.688802195025	1
1	213	16.716882145584	1
1	220	16.977598145022	1
1	240	17.570209466339	1
1	251	18.645498561612	1
1	262	19.325899186667	1
1	273	21.032521625805	1
1	284	24.571378271256	1
1	295	25.970033720731	1
1	306	26.436562648391	1
1	312	26.63751923806	1
1	328	28.161590345905	1
1	334	28.317151760721	1
1	349	29.357459992154	1
1	352	29.398117476146	1
1	369	30.664686980147	1
1	372	30.698874337261	1
1	377	30.804254057951	1
1	386	30.994171352129	1
1	401	31.378395852939	1
1	418	36.930299494772	1
1	429	38.404231874304	1
1	438	38.8007305636	1
1	446	39.055699146062	1
1	462	40.270557205015	1
1	465	40.34829734396	1
1	482	40.893534431057	1
1	493	43.695849203574	1
1	504	44.301702893314	1
1	510	44.573492030696	1
1	526	47.039444718979	1
1	532	47.259418963021	1
1	538	47.357944390632	1
1	557	47.909957975826	1
1	568	48.441771252279	1
1	577	48.802975431287	1
1	585	48.93271345747	1
1	598	49.325895808839	1
1	611	49.982899534142	1
1	622	51.090544513548	1
1	631	51.392503166449	1
1	642	51.759342872185	1
1	655	52.415236075107	1
1	666	53.179875131788	1
1	677	54.111049907646	1
1	688	55.573772537167	1
1	697	55.958885291188	1
1	710	57.613377975369	1
1	721	58.442603526876	1
1	732	59.197939680237	1
1	743	60.072801462541	1
1	754	61.562490417237	1
1	765	62.025481872034	1
1	776	63.034179821921	1
1	787	63.472987506021	1
1	796	63.808376674825	1
1	809	64.229114455979	1
1	815	64.351106726006	1
1	828	64.79412253215	1
1	841	66.371501366936	1
1	844	66.442067299356	1
1	861	67.369217652778	1
1	864	67.418951159455	1
1	881	68.541510031612	1
1	884	68.610843697476	1
1	901	69.366442823329	1
1	912	70.377660887292	1
1	918	70.529916464039	1
1	921	70.555070115585	1
1	940	71.116696014466	1
1	953	71.705008667455	1
1	964	72.815615677817	1
1	970	72.936566097793	1
1	985	74.233256531287	1
1	988	74.259809273037	1
1	995	74.513128984383	1
1	1015	75.380327892382	1
1	1021	75.516778409647	1
1	1036	76.018777579488	1
1	1039	76.064429408631	1
1	1056	79.186706728241	1
1	1065	79.539896418576	1
1	1076	79.880005456222	1
1	1084	80.08545952709	1
1	1093	80.270284267542	1
1	1110	81.506582795929	1
1	1121	82.485918209089	1
1	1132	83.015538689195	1
1	1141	83.383142348136	1
1	1154	85.593954125707	1
1	1165	86.847016462229	1
1	1174	87.198078495204	1
1	1187	88.531944165421	1
1	1190	88.626562570081	1
1	1205	89.125309793564	1
1	1218	90.855248996201	1
1	1224	91.121389913547	1
1	1240	92.564828381921	1
1	1243	92.585393939147	1
1	1250	92.793660075156	1
1	1265	93.188190024913	1
1	1279	93.503308441058	1
1	1284	93.590724517018	1
1	1301	94.419573100442	1
1	1312	95.524742596072	1
1	1323	96.182756408328	1
1	1334	96.705640559572	1
1	1345	98.760225868012	1
1	1356	99.384979299679	1
1	1362	99.665356842976	1
1	1378	100.646099975422	1
1	1389	101.419955713098	1
1	1400	101.890762405198	1
1	1406	102.053854587191	1
1	1421	102.840114173705	1
1	1432	103.760937094871	1
1	1443	105.236889254506	1
1	1454	105.919113051779	1
1	1465	106.430171387472	1
1	1474	106.767763593709	1
1	1487	108.628215777992	1
1	1498	109.169778647502	1
1	1504	109.381406306458	1
1	1507	109.438159734831	1
1	1515	109.534184332305	1
1	1538	110.340816730603	1
1	1541	110.351087134656	1
1	1558	111.618894873637	1
1	1569	113.744168257669	1
1	1580	116.573799669686	1
1	1591	117.4341340975	1
1	1602	121.977108612186	1
1	1608	122.188041493096	1
1	1622	122.556880689563	1
1	1635	123.231001572473	1
1	1646	124.020181772688	1
1	1657	126.175590337135	1
1	1668	127.19093078061	1
1	1679	128.962996608465	1
1	1685	129.188628469739	1
1	1694	129.304651989616	1
1	1701	129.441081497354	1
1	1714	129.748703506029	1
1	1719	129.794938427465	1
1	1733	130.092419923608	1
1	1750	132.478235043462	1
1	1761	133.193842342154	1
1	1767	133.327735038575	1
1	1782	134.484001361419	1
1	1793	135.300936759865	1
1	1802	135.641361961041	1
1	1813	136.037449263753	1
1	1826	136.833148497043	1
1	1837	137.737970243441	1
1	1848	138.354220111175	1
1	1854	138.639565503322	1
1	1870	140.784320194879	1
1	1881	141.326680457373	1
1	1887	141.51780574906	1
1	1890	141.559931742288	1
1	1892	141.561330936617	2
1	1920	142.452871472344	1
1	1923	142.516142139902	1
1	1940	143.505956535396	1
1	1951	143.969699628708	1
1	1962	146.682084579926	1
1	1973	147.269421205809	1
1	1976	147.368174432934	1
1	1993	148.092997658624	1
1	2004	149.489705213289	1
1	2015	151.294578151354	1
1	2021	151.40424203008	1
1	2027	151.594679354613	1
1	2046	153.160754734752	1
1	2057	153.625501053939	1
1	2063	153.813761494413	1
1	2078	156.102245759064	1
1	2089	158.206999802103	1
1	2098	158.59072570208	1
1	2111	159.205723951615	1
1	2114	159.218574127681	1
1	2131	160.489661528798	1
1	2142	162.444544998516	1
1	2153	163.289506658723	1
1	2164	164.101725762824	1
1	2170	164.306924759288	1
1	2186	167.314619104679	1
1	2197	167.790229647199	1
1	2208	168.616308251244	1
1	2219	170.748450830511	1
1	2230	173.088485126093	1
1	2241	174.088814107951	1
1	2252	174.865622968316	1
1	2263	175.82568772446	1
1	2269	175.953174580418	1
1	2284	177.062638938043	1
1	2295	178.026851865738	1
1	2298	178.103067679395	1
1	2315	178.774912063485	1
1	2326	179.669044184116	1
1	2329	179.676766888843	1
1	2346	180.475063562972	1
1	2357	181.742102665618	1
1	2366	182.075038570093	1
1	2374	182.185073992411	1
1	2379	182.341497885991	1
1	2399	182.960769624078	1
1	2405	183.25986806256	1
1	2421	184.191360189541	1
1	2424	184.192289429402	1
1	2441	185.41571776198	1
1	2447	185.658735009925	1
1	2463	188.062676951995	1
1	2474	189.051515243984	1
1	2480	189.164033988484	1
1	2485	189.350087191814	1
1	2495	189.550446583859	1
1	2515	191.161534852817	1
1	2524	191.548037929519	1
1	2537	193.199050104431	1
1	2548	193.635079218882	1
1	2559	194.67877738825	1
1	2570	195.436647114943	1
1	2581	196.092024422169	1
2	5	1.705978513779	1
2	16	3.133770692803	1
2	22	3.301310290764	1
2	39	4.061982484723	1
2	44	4.161982484723	1
2	47	4.261982484723	1
2	61	4.590880715754	1
2	76	6.041929032776	1
2	85	6.315745291345	1
2	98	8.53629798228	1
2	111	9.178067594149	1
2	114	9.278067594149	1
2	124	9.509938300807	1
2	139	10.978438981365	1
2	150	11.287063270937	1
2	161	12.368856754268	1
2	167	12.469575149015	1
2	177	12.672211188515	1
2	187	12.916626499502	1
2	202	14.666849339626	1
2	215	16.788902195025	1
2	218	16.888902195025	1
2	226	17.077698145022	1
2	243	17.670309466339	1
2	254	18.745598561612	1
2	265	19.425999186667	1
2	276	21.132621625805	1
2	287	24.671478271256	1
2	298	26.070133720731	1
2	309	26.536662648391	1
2	318	26.73761923806	1
2	331	28.261690345905	1
2	337	28.417251760721	1
2	354	29.457559992154	1
2	357	29.557559992154	1
2	374	30.764786980147	1
2	379	30.864786980147	1
2	382	30.964786980147	1
2	391	31.094271352129	2
2	406	31.478495852939	1
2	421	37.030399494772	1
2	432	38.504331874304	1
2	443	38.9008305636	1
2	452	39.155799146062	1
2	467	40.370657205015	1
2	470	40.470657205015	1
2	485	40.993634431057	1
2	496	43.795949203574	1
2	507	44.401802893314	1
2	516	44.673592030696	1
2	529	47.139544718979	1
2	540	47.359518963021	1
2	545	47.459518963021	1
2	560	48.010057975826	1
2	571	48.541871252279	1
2	582	48.903075431287	1
2	588	49.03281345747	1
2	603	49.425995808839	1
2	614	50.082999534142	1
2	625	51.190644513548	1
2	636	51.492603166449	1
2	647	51.859442872185	1
2	658	52.515336075107	1
2	669	53.279975131788	1
2	680	54.211149907646	1
2	691	55.673872537167	1
2	702	56.058985291188	1
2	713	57.713477975369	1
2	724	58.542703526876	1
2	735	59.298039680237	1
2	746	60.172901462541	1
2	757	61.662590417237	1
2	768	62.125581872034	1
2	779	63.134279821921	1
2	790	63.573087506021	1
2	801	63.908476674825	1
2	812	64.329214455979	1
2	818	64.451206726006	1
2	833	64.89422253215	1
2	846	66.471601366936	1
2	849	66.571601366936	1
2	866	67.469317652778	1
2	869	67.569317652778	1
2	886	68.641610031612	1
2	889	68.741610031612	1
2	904	69.466542823329	1
2	915	70.477760887292	1
2	923	70.630016464039	1
2	928	70.730016464039	1
2	945	71.216796014466	1
2	956	71.805108667455	1
2	967	72.915715677817	1
2	973	73.036666097793	1
2	990	74.333356531287	1
2	993	74.433356531287	1
2	1001	74.613228984383	1
2	1018	75.480427892382	1
2	1024	75.616878409647	1
2	1041	76.118877579488	1
2	1044	76.218877579488	1
2	1059	79.286806728241	1
2	1070	79.639996418576	1
2	1081	79.980105456222	1
2	1090	80.18555952709	1
2	1098	80.370384267542	1
2	1113	81.606682795929	1
2	1124	82.586018209089	1
2	1135	83.115638689195	1
2	1146	83.483242348136	1
2	1157	85.694054125707	1
2	1168	86.947116462229	1
2	1179	87.298178495204	1
2	1192	88.632044165421	1
2	1195	88.732044165421	1
2	1210	89.225409793564	1
2	1221	90.955348996201	1
2	1230	91.221489913547	1
2	1245	92.664928381921	1
2	1248	92.764928381921	1
2	1256	92.893760075156	1
2	1271	93.288290024913	1
2	1286	93.603408441058	1
2	1289	93.703408441058	1
2	1304	94.519673100442	1
2	1315	95.624842596072	1
2	1326	96.282856408328	1
2	1337	96.805740559572	1
2	1348	98.860325868012	1
2	1359	99.485079299679	1
2	1368	99.765456842976	1
2	1381	100.746199975422	1
2	1392	101.520055713098	1
2	1403	101.990862405198	1
2	1409	102.153954587191	1
2	1424	102.940214173705	1
2	1435	103.861037094871	1
2	1446	105.336989254506	1
2	1457	106.019213051779	1
2	1468	106.530271387472	1
2	1479	106.867863593709	1
2	1490	108.728315777992	1
2	1501	109.269878647502	1
2	1512	109.481506306458	1
2	1519	109.581506306458	1
2	1522	109.681506306458	1
2	1543	110.440916730603	1
2	1546	110.540916730603	1
2	1561	111.718994873637	1
2	1572	113.844268257669	1
2	1583	116.673899669686	1
2	1594	117.5342340975	1
2	1605	122.077208612186	1
2	1614	122.288141493096	1
2	1627	122.656980689563	1
2	1638	123.331101572473	1
2	1649	124.120281772688	1
2	1660	126.275690337135	1
2	1671	127.29103078061	1
2	1682	129.063096608465	1
2	1691	129.288728469739	1
2	1699	129.404751989616	1
2	1707	129.541181497354	1
2	1721	129.848803506029	1
2	1726	129.948803506029	1
2	1738	130.192519923608	1
2	1753	132.578335043462	1
2	1764	133.293942342154	1
2	1770	133.427835038575	1
2	1785	134.584101361419	1
2	1796	135.401036759865	1
2	1807	135.741461961041	1
2	1818	136.137549263753	1
2	1829	136.933248497043	1
2	1840	137.838070243441	1
2	1851	138.454320111175	1
2	1860	138.739665503322	1
2	1873	140.884420194879	1
2	1884	141.426780457373	1
2	1894	141.61790574906	1
2	1899	141.71790574906	1
2	1903	141.81790574906	2
2	1925	142.552971472344	1
2	1928	142.652971472344	1
2	1943	143.606056535396	1
2	1954	144.069799628708	1
2	1965	146.782184579926	1
2	1978	147.369521205809	1
2	1981	147.469521205809	1
2	1996	148.193097658624	1
2	2007	149.589805213289	1
2	2018	151.394678151354	1
2	2024	151.50434203008	1
2	2034	151.694779354613	1
2	2049	153.260854734752	1
2	2060	153.725601053939	1
2	2066	153.913861494413	1
2	2081	156.202345759064	1
2	2092	158.307099802103	1
2	2103	158.69082570208	1
2	2116	159.305823951615	1
2	2119	159.405823951615	1
2	2134	160.589761528798	1
2	2145	162.544644998516	1
2	2156	163.389606658723	1
2	2167	164.201825762824	1
2	2176	164.407024759288	1
2	2189	167.414719104679	1
2	2200	167.890329647199	1
2	2211	168.716408251244	1
2	2222	170.848550830511	1
2	2233	173.188585126093	1
2	2244	174.188914107951	1
2	2255	174.965722968316	1
2	2266	175.92578772446	1
2	2272	176.053274580418	1
2	2287	177.162738938043	1
2	2300	178.126951865738	1
2	2303	178.226951865738	1
2	2318	178.875012063485	1
2	2331	179.769144184116	1
2	2334	179.869144184116	1
2	2349	180.575163562972	1
2	2360	181.842202665618	1
2	2371	182.175138570093	1
2	2377	182.285173992411	1
2	2385	182.441597885991	1
2	2402	183.060869624078	1
2	2411	183.35996806256	1
2	2426	184.291460189541	1
2	2429	184.391460189541	1
2	2444	185.51581776198	1
2	2453	185.758835009925	1
2	2466	188.162776951995	1
2	2477	189.151615243984	1
2	2483	189.264133988484	1
2	2491	189.450187191814	1
2	2501	189.650546583859	1
2	2518	191.261634852817	1
2	2529	191.648137929519	1
2	2540	193.299150104431	1
2	2551	193.735179218882	1
2	2562	194.77887738825	1
2	2573	195.536747114943	1
2	2584	196.192124422169	1
3	8	1.906078513779	1
3	24	3.333870692803	1
3	29	3.533870692803	1
3	48	4.262082484723	1
3	53	4.462082484723	1
3	63	4.662082484723	1
3	68	4.862082484723	1
3	82	6.242029032776	1
3	90	6.515845291345	1
3	101	8.73639798228	1
3	116	9.378167594149	1
3	126	9.578167594149	1
3	131	9.778167594149	1
3	142	11.178538981365	1
3	153	11.487163270937	1
3	169	12.568956754268	1
3	179	12.768956754268	1
3	189	12.968956754268	1
3	194	13.168956754268	1
3	205	14.866949339626	1
3	223	16.989002195025	1
3	230	17.189002195025	1
3	235	17.389002195025	1
3	246	17.870409466339	1
3	257	18.945698561612	1
3	268	19.626099186667	1
3	279	21.332721625805	1
3	290	24.871578271256	1
3	301	26.270233720731	1
3	315	26.736762648391	1
3	323	26.93771923806	1
3	339	28.461790345905	1
3	344	28.661790345905	1
3	359	29.657659992154	1
3	364	29.857659992154	1
3	383	30.964886980147	1
3	393	31.164886980147	1
3	398	31.364886980147	1
3	408	31.564886980147	1
3	413	31.764886980147	1
3	424	37.230499494772	1
3	435	38.704431874304	1
3	449	39.1009305636	1
3	457	39.355899146062	1
3	472	40.570757205015	1
3	477	40.770757205015	1
3	488	41.193734431057	1
3	499	43.996049203574	1
3	513	44.601902893314	1
3	521	44.873692030696	1
3	535	47.339644718979	1
3	547	47.559618963021	1
3	552	47.759618963021	1
3	563	48.210157975826	1
3	574	48.741971252279	1
3	590	49.103175431287	1
3	595	49.303175431287	1
3	606	49.626095808839	1
3	617	50.283099534142	1
3	628	51.390744513548	1
3	639	51.692703166449	1
3	650	52.059542872185	1
3	661	52.715436075107	1
3	672	53.480075131788	1
3	683	54.411249907646	1
3	694	55.873972537167	1
3	705	56.259085291188	1
3	716	57.913577975369	1
3	727	58.742803526876	1
3	738	59.498139680237	1
3	749	60.373001462541	1
3	760	61.862690417237	1
3	771	62.325681872034	1
3	782	63.334379821921	1
3	793	63.773187506021	1
3	804	64.108576674825	1
3	820	64.529314455979	1
3	825	64.729314455979	1
3	836	65.09432253215	1
3	851	66.671701366936	1
3	856	66.871701366936	1
3	871	67.669417652778	1
3	876	67.869417652778	1
3	891	68.841710031612	1
3	896	69.041710031612	1
3	907	69.666642823329	1
3	925	70.677860887292	1
3	932	70.877860887292	1
3	937	71.077860887292	1
3	948	71.416896014466	1
3	959	72.005208667455	1
3	975	73.115815677817	1
3	980	73.315815677817	1
3	998	74.533456531287	1
3	1005	74.733456531287	1
3	1010	74.933456531287	1
3	1026	75.680527892382	1
3	1031	75.880527892382	1
3	1046	76.318977579488	1
3	1051	76.518977579488	1
3	1062	79.486906728241	1
3	1073	79.840096418576	1
3	1087	80.180205456222	1
3	1100	80.38565952709	1
3	1105	80.58565952709	1
3	1116	81.806782795929	1
3	1127	82.786118209089	1
3	1138	83.315738689195	1
3	1149	83.683342348136	1
3	1160	85.894154125707	1
3	1171	87.147216462229	1
3	1182	87.498278495204	1
3	1197	88.832144165421	1
3	1202	89.032144165421	1
3	1213	89.425509793564	1
3	1227	91.155448996201	1
3	1235	91.421589913547	1
3	1253	92.865028381921	1
3	1260	93.065028381921	1
3	1268	93.265028381921	1
3	1276	93.488390024913	1
3	1291	93.803508441058	1
3	1296	94.003508441058	1
3	1307	94.719773100442	1
3	1318	95.824942596072	1
3	1329	96.482956408328	1
3	1340	97.005840559572	1
3	1351	99.060425868012	1
3	1365	99.685179299679	1
3	1373	99.965556842976	1
3	1384	100.946299975422	1
3	1395	101.720155713098	1
3	1411	102.190962405198	1
3	1416	102.390962405198	1
3	1427	103.140314173705	1
3	1438	104.061137094871	1
3	1449	105.537089254506	1
3	1460	106.219313051779	1
3	1471	106.730371387472	1
3	1482	107.067963593709	1
3	1493	108.928415777992	1
3	1509	109.469978647502	1
3	1523	109.681606306458	1
3	1528	109.881606306458	1
3	1533	110.081606306458	1
3	1548	110.641016730603	1
3	1553	110.841016730603	1
3	1564	111.919094873637	1
3	1575	114.044368257669	1
3	1586	116.873999669686	1
3	1597	117.7343340975	1
3	1611	122.277308612186	1
3	1619	122.488241493096	1
3	1630	122.857080689563	1
3	1641	123.531201572473	1
3	1652	124.320381772688	1
3	1663	126.475790337135	1
3	1674	127.49113078061	1
3	1688	129.263196608465	1
3	1704	129.488828469739	1
3	1711	129.688828469739	1
3	1723	129.888828469739	1
3	1730	130.088828469739	1
3	1740	130.288828469739	1
3	1745	130.488828469739	1
3	1756	132.778435043462	1
3	1772	133.494042342154	1
3	1777	133.694042342154	1
3	1788	134.784201361419	1
3	1799	135.601136759865	1
3	1810	135.941561961041	1
3	1821	136.337649263753	1
3	1832	137.133348497043	1
3	1843	138.038170243441	1
3	1857	138.654420111175	1
3	1865	138.939765503322	1
3	1876	141.084520194879	1
3	1896	141.626880457373	1
3	1905	141.826880457373	1
3	1910	142.026880457373	1
3	1915	142.226880457373	1
3	1930	142.753071472344	1
3	1935	142.953071472344	1
3	1946	143.806156535396	1
3	1957	144.269899628708	1
3	1968	146.982284579926	1
3	1983	147.569621205809	1
3	1988	147.769621205809	1
3	1999	148.393197658624	1
3	2010	149.789905213289	1
3	2029	151.594778151354	1
3	2036	151.794778151354	1
3	2041	151.994778151354	1
3	2052	153.460954734752	1
3	2068	153.925701053939	1
3	2073	154.125701053939	1
3	2084	156.402445759064	1
3	2095	158.507199802103	1
3	2106	158.89092570208	1
3	2121	159.505923951615	1
3	2126	159.705923951615	1
3	2137	160.789861528798	1
3	2148	162.744744998516	1
3	2159	163.589706658723	1
3	2173	164.401925762824	1
3	2181	164.607124759288	1
3	2192	167.614819104679	1
3	2203	168.090429647199	1
3	2214	168.916508251244	1
3	2225	171.048650830511	1
3	2236	173.388685126093	1
3	2247	174.389014107951	1
3	2258	175.165822968316	1
3	2274	176.12588772446	1
3	2279	176.32588772446	1
3	2290	177.362838938043	1
3	2305	178.327051865738	1
3	2310	178.527051865738	1
3	2321	179.075112063485	1
3	2336	179.969244184116	1
3	2341	180.169244184116	1
3	2352	180.775263562972	1
3	2363	182.042302665618	1
3	2382	182.375238570093	1
3	2389	182.575238570093	1
3	2394	182.775238570093	1
3	2408	183.260969624078	1
3	2416	183.56006806256	1
3	2431	184.491560189541	1
3	2436	184.691560189541	1
3	2450	185.71591776198	1
3	2458	185.958935009925	1
3	2469	188.362876951995	1
3	2488	189.351715243984	1
3	2498	189.551715243984	1
3	2505	189.751715243984	1
3	2510	189.951715243984	1
3	2521	191.461734852817	1
3	2532	191.848237929519	1
3	2543	193.499250104431	1
3	2554	193.935279218882	1
3	2565	194.97897738825	1
3	2576	195.736847114943	1
3	2587	196.392224422169	1
4	10	2.006078513779	0.4002
4	26	3.433870692803	0.4002
4	31	3.633870692803	0.432660402039
4	50	4.362082484723	0.4002
4	58	4.562082484723	0.552687774472
4	65	4.762082484723	0.652691515219
4	70	4.962082484723	0.471301768969
4	87	6.342029032776	0.4002
4	92	6.615845291345	0.4002
4	103	8.83639798228	0.4002
4	121	9.478167594149	0.4002
4	128	9.678167594149	0.578720805923
4	133	9.878167594149	0.468329293342
4	147	11.278538981365	0.4002
4	155	11.587163270937	0.4002
4	174	12.668956754268	0.4002
4	184	12.868956754268	0.499481605253
4	191	13.068956754268	0.496845565753
4	196	13.268956754268	0.452430254766
4	207	14.966949339626	0.4002
4	227	17.089002195025	0.4002
4	232	17.289002195025	0.572120049441
4	237	17.489002195025	0.511404050003
4	248	17.970409466339	0.4002
4	259	19.045698561612	0.4002
4	270	19.726099186667	0.4002
4	281	21.432721625805	0.4002
4	292	24.971578271256	0.4002
4	303	26.370233720731	0.4002
4	320	26.836762648391	0.4002
4	325	27.03771923806	0.4002
4	341	28.561790345905	0.4002
4	346	28.761790345905	0.444638585184
4	361	29.757659992154	0.4002
4	366	29.957659992154	0.559542516008
4	388	31.064886980147	0.4002
4	395	31.264886980147	0.566012642886
4	403	31.464886980147	0.660632922196
4	410	31.664886980147	0.670715628018
4	415	31.864886980147	0.486491127208
4	426	37.330499494772	0.4002
4	440	38.804431874304	0.4002
4	454	39.2009305636	0.4002
4	459	39.455899146062	0.4002
4	474	40.670757205015	0.4002
4	479	40.870757205015	0.522459861055
4	490	41.293734431057	0.4002
4	501	44.096049203574	0.4002
4	518	44.701902893314	0.4002
4	523	44.973692030696	0.4002
4	542	47.439644718979	0.4002
4	549	47.659618963021	0.4002
4	554	47.859618963021	0.501674572389
4	565	48.310157975826	0.4002
4	579	48.841971252279	0.4002
4	592	49.203175431287	0.4002
4	600	49.403175431287	0.470461973817
4	608	49.726095808839	0.4002
4	619	50.383099534142	0.4002
4	633	51.490744513548	0.4002
4	644	51.792703166449	0.4002
4	652	52.159542872185	0.4002
4	663	52.815436075107	0.4002
4	674	53.580075131788	0.4002
4	685	54.511249907646	0.4002
4	699	55.973972537167	0.4002
4	707	56.359085291188	0.4002
4	718	58.013577975369	0.4002
4	729	58.842803526876	0.4002
4	740	59.598139680237	0.4002
4	751	60.473001462541	0.4002
4	762	61.962690417237	0.4002
4	773	62.425681872034	0.4002
4	784	63.434379821921	0.4002
4	798	63.873187506021	0.4002
4	806	64.208576674825	0.4002
4	822	64.629314455979	0.4002
4	830	64.829314455979	0.478207729973
4	838	65.19432253215	0.4002
4	853	66.771701366936	0.4002
4	858	66.971701366936	0.52963406758
4	873	67.769417652778	0.4002
4	878	67.969417652778	0.550466493323
4	893	68.941710031612	0.4002
4	898	69.141710031612	0.530866334136
4	909	69.766642823329	0.4002
4	929	70.777860887292	0.4002
4	934	70.977860887292	0.447944423253
4	942	71.177860887292	0.622790771707
4	950	71.516896014466	0.4002
4	961	72.105208667455	0.4002
4	977	73.215815677817	0.4002
4	982	73.415815677817	0.479249580024
4	1002	74.633456531287	0.4002
4	1007	74.833456531287	0.57364725825
4	1012	75.033456531287	0.520327546904
4	1028	75.780527892382	0.4002
4	1033	75.980527892382	0.463749482735
4	1048	76.418977579488	0.4002
4	1053	76.618977579488	0.554548170857
4	1067	79.586906728241	0.4002
4	1078	79.940096418576	0.4002
4	1095	80.280205456222	0.4002
4	1102	80.48565952709	0.4002
4	1107	80.68565952709	0.415375259548
4	1118	81.906782795929	0.4002
4	1129	82.886118209089	0.4002
4	1143	83.415738689195	0.4002
4	1151	83.783342348136	0.4002
4	1162	85.994154125707	0.4002
4	1176	87.247216462229	0.4002
4	1184	87.598278495204	0.4002
4	1199	88.932144165421	0.4002
4	1207	89.132144165421	0.50558159534
4	1215	89.525509793564	0.4002
4	1232	91.255448996201	0.4002
4	1237	91.521589913547	0.4002
4	1257	92.965028381921	0.4002
4	1262	93.165028381921	0.579634442774
4	1273	93.365028381921	0.571368306765
4	1281	93.588390024913	0.4002
4	1293	93.903508441058	0.4002
4	1298	94.103508441058	0.51278392404
4	1309	94.819773100442	0.4002
4	1320	95.924942596072	0.4002
4	1331	96.582956408328	0.4002
4	1342	97.105840559572	0.4002
4	1353	99.160425868012	0.4002
4	1370	99.785179299679	0.4002
4	1375	100.065556842976	0.4002
4	1386	101.046299975422	0.4002
4	1397	101.820155713098	0.4002
4	1413	102.290962405198	0.4002
4	1418	102.490962405198	0.437107818007
4	1429	103.240314173705	0.4002
4	1440	104.161137094871	0.4002
4	1451	105.637089254506	0.4002
4	1462	106.319313051779	0.4002
4	1476	106.830371387472	0.4002
4	1484	107.167963593709	0.4002
4	1495	109.028415777992	0.4002
4	1516	109.569978647502	0.4002
4	1525	109.781606306458	0.4002
4	1530	109.981606306458	0.543446571627
4	1535	110.181606306458	0.647421974153
4	1550	110.741016730603	0.4002
4	1555	110.941016730603	0.589929595947