version 3
run BaseVersion-10-20240511-20:48:36-11938
attr configname BaseVersion
attr datetime 20240511-20:48:36
attr datetimef 20240511-204836
attr experiment BaseVersion
attr inifile omnetpp.ini
attr iterationvars $genInterval=0.6
attr iterationvarsd genInterval=0.6
attr iterationvarsf genInterval=0.6-
attr measurement $genInterval=0.6
attr network Network
attr processid 11938
attr repetition 0
attr replication #0
attr resultdir results
attr runnumber 10
attr seedset 10
itervar genInterval 0.6
config network Network
config sim-time-limit 200s
config Network.nodeTx.gen.generationInterval exponential(0.6)
config Network.nodeTx.gen.packetByteSize 12500
config Network.nodeTx.queue.bufferSize 200
config Network.nodeRx.queue.bufferSize 200
config Network.queue.bufferSize 200

vector 0 Network.nodeTx.gen packetGen ETV
vector 1 Network.nodeTx.queue bufferSize ETV
vector 2 Network.queue bufferSize ETV
vector 3 Network.nodeRx.queue bufferSize ETV
vector 4 Network.nodeRx.sink Delay ETV
vector 5 Network.nodeRx.sink packetUsed ETV
0	1	0.885260666985	1
0	7	1.098204707713	1
0	10	1.110786884288	1
0	27	1.520217977924	1
0	43	2.122714752752	1
0	52	2.473844876294	1
0	65	3.302757656789	1
0	76	4.372715954934	1
0	87	4.786815349299	1
0	98	5.312079900445	1
0	104	5.464857837894	1
0	107	5.480154214266	1
0	114	5.612589248779	1
0	137	6.353677496298	1
0	148	7.21127555901	1
0	154	7.39646874993	1
0	159	7.507624070724	1
0	169	7.691215488735	1
0	175	7.746708266185	1
0	181	7.844486413032	1
0	205	8.538281749246	1
0	218	9.229144928029	1
0	229	11.068752075178	1
0	240	12.086409513648	1
0	243	12.088783163029	1
0	250	12.334531727842	1
0	265	12.765232085844	1
0	281	14.094067447467	1
0	292	15.098840513282	1
0	298	15.231319655933	1
0	313	15.800183687409	1
0	316	15.818840765396	1
0	333	16.586393394878	1
0	344	17.846743173386	1
0	350	18.053824864946	1
0	366	18.833752886188	1
0	377	20.332724018173	1
0	388	20.799791434058	1
0	399	21.552058674018	1
0	402	21.63662237845	1
0	417	22.105867605315	1
0	428	22.426188426755	1
0	433	22.518198060657	1
0	450	23.423217802749	1
0	456	23.703629219307	1
0	472	24.229728988484	1
0	483	24.902489701689	1
0	489	25.023488804893	1
0	499	25.373347240215	1
0	515	26.42285091698	1
0	524	26.764362473682	1
0	529	26.831190853246	1
0	546	27.408225772667	1
0	552	27.60831620776	1
0	568	28.040181245393	1
0	571	28.080868059397	1
0	588	28.711442610506	1
0	591	28.746302468641	1
0	606	29.297637361279	1
0	619	30.167704139262	1
0	630	31.149244740556	1
0	633	31.156359577891	1
0	645	31.598803565521	1
0	661	32.166765912187	1
0	672	33.602592785494	1
0	678	33.844567299654	1
0	689	34.075291128587	1
0	705	34.567400151615	1
0	708	34.62428950407	1
0	718	34.869521427159	1
0	728	35.084126742884	1
0	740	35.401910188411	1
0	746	35.474522596086	1
0	751	35.522504298052	1
0	774	36.58104220554	1
0	785	37.731611331948	1
0	788	37.760430284329	1
0	798	38.108307937847	1
0	815	38.698868472116	1
0	818	38.776902351272	1
0	833	39.252797104626	1
0	846	40.042264250509	1
0	857	41.068771337714	1
0	860	41.15841622854	1
0	867	41.29151353276	1
0	887	42.165234812161	1
0	898	43.331553407246	1
0	909	44.401791638459	1
0	915	44.661788843428	1
0	926	44.884234087796	1
0	942	45.727270155136	1
0	953	46.27342894867	1
0	959	46.483982463912	1
0	975	47.719259947619	1
0	986	49.011430500819	1
0	997	51.456892571404	1
0	1003	51.693173085911	1
0	1017	52.071167545245	1
0	1025	52.17937310067	1
0	1040	53.430622287649	1
0	1046	53.729693038005	1
0	1057	53.940337745322	1
0	1060	53.999210070371	1
0	1068	54.083658352506	1
0	1091	55.116234288052	1
0	1102	56.226444595051	1
0	1105	56.324769692989	1
0	1122	56.970357256825	1
0	1128	57.26117373085	1
0	1144	57.804146277589	1
0	1155	59.536388263524	1
0	1164	59.880385272418	1
0	1177	62.515654600387	1
0	1183	62.779921803394	1
0	1197	63.145541413799	1
0	1210	63.676316257877	1
0	1221	64.725960000594	1
0	1224	64.823098300394	1
0	1231	64.99680786037	1
0	1239	65.109501647194	1
0	1259	65.655346459403	1
0	1270	65.959013031303	1
0	1283	67.357799827367	1
0	1294	67.967386193212	1
0	1305	68.426246799878	1
0	1311	68.705872840139	1
0	1327	69.241126470131	1
0	1330	69.242572268564	1
0	1332	69.266616735804	1
0	1349	69.744145229598	1
0	1359	70.009281193152	1
0	1364	70.090753677668	1
0	1368	70.140530363637	1
0	1373	70.190424138868	1
0	1384	70.409127383864	1
0	1395	70.569885324716	1
0	1405	70.81081637004	1
0	1427	71.458040308583	1
0	1443	72.349922108845	1
0	1449	72.495129272875	1
0	1452	72.519596976797	1
0	1459	72.655772432191	1
0	1472	72.992509473204	1
0	1485	73.282110069831	1
0	1495	73.509047886636	1
0	1505	73.661884769821	1
0	1522	74.269055743754	1
0	1525	74.342118269907	1
0	1535	74.597225595442	1
0	1552	75.122051570078	1
0	1555	75.148483742987	1
0	1560	75.307364107861	1
0	1581	76.579098241756	1
0	1592	77.066957331825	1
0	1603	77.931383800689	1
0	1614	78.376547921936	1
0	1625	79.639263943808	1
0	1631	79.898618861325	1
0	1645	80.222883937853	1
0	1658	80.956026737138	1
0	1669	81.514226397333	1
0	1680	82.545455865065	1
0	1691	82.977725737861	1
0	1694	83.064438155561	1
0	1711	83.610976314337	1
0	1722	84.167882206267	1
0	1728	84.350344438762	1
0	1736	84.550076193138	1
0	1746	84.764828461684	1
0	1763	85.188455858812	1
0	1766	85.203892614461	1
0	1768	85.227424352556	1
0	1775	85.444060132402	1
0	1786	85.686539415256	1
0	1796	85.852842614319	1
0	1799	85.853006153426	1
0	1818	86.342301072797	1
0	1840	86.997859167963	1
0	1851	87.498004459435	1
0	1857	87.782354264574	1
0	1871	88.169119631774	1
0	1884	88.995120869376	1
0	1890	89.202984216482	1
0	1893	89.293879794969	1
0	1901	89.33372463643	1
0	1914	89.628386915297	1
0	1934	91.94118140222	1
0	1945	93.14933612459	1
0	1951	93.398379852699	1
0	1967	95.284269815314	1
0	1978	95.694245705922	1
0	1987	96.094211564498	1
0	2000	98.359677895439	1
0	2003	98.426862673503	1
0	2015	98.775583440658	1
0	2026	99.024926606941	1
0	2037	99.254802031283	1
0	2053	100.337967113118	1
0	2064	100.778094908846	1
0	2073	101.153883512331	1
0	2086	101.671727505761	1
0	2089	101.730200018807	1
0	2106	102.88441699533	1
0	2117	104.041765643434	1
0	2120	104.084081747311	1
0	2127	104.330903616438	1
0	2142	104.705670767217	1
0	2158	105.264736904683	1
0	2169	106.178553024589	1
0	2172	106.25027236625	1
0	2189	107.011065234478	1
0	2200	107.482118050751	1
0	2211	108.011283484756	1
0	2222	108.776776596005	1
0	2225	108.799456544122	1
0	2242	110.004579684975	1
0	2248	110.263655645855	1
0	2254	110.358842893758	1
0	2271	110.855798017536	1
0	2276	110.921272620402	1
0	2283	111.135046093168	1
0	2298	111.539705744271	1
0	2314	111.97058065881	1
0	2317	111.988348907714	1
0	2334	112.659883325882	1
0	2345	113.201998289425	1
0	2351	113.306034692265	1
0	2356	113.444321025598	1
0	2359	113.475398766944	1
0	2368	113.611390822672	1
0	2379	113.858717810178	1
0	2404	114.973941706995	1
0	2407	115.042558096778	1
0	2412	115.080683987956	1
0	2416	115.198952263632	1
0	2432	115.613918102832	1
0	2452	116.915942887622	1
0	2458	117.087326963597	1
0	2468	117.360150083839	1
0	2479	117.597884473292	1
0	2488	117.746015383965	1
0	2491	117.747767591322	1
0	2514	118.585565122181	1
0	2520	118.795676016248	1
0	2523	118.863496330222	1
0	2545	121.464084033144	1
0	2556	122.28304625679	1
0	2562	122.446393528937	1
0	2575	122.82707747404	1
0	2588	123.620273069299	1
0	2599	124.167436696263	1
0	2610	126.132654991494	1
0	2613	126.22848882805	1
0	2630	127.242408571766	1
0	2636	127.364438730311	1
0	2651	128.075386049031	1
0	2662	128.696890463835	1
0	2668	128.838852777561	1
0	2671	128.868762856425	1
0	2687	129.306455481279	1
0	2696	129.477955754535	1
0	2713	131.271447987915	1
0	2724	131.740515059806	1
0	2735	132.454900034582	1
0	2741	132.609209866798	1
0	2756	134.019423171488	1
0	2762	134.307612212998	1
0	2778	134.93390333708	1
0	2789	136.466324538094	1
0	2795	136.720473401148	1
0	2811	138.277495519701	1
0	2814	138.318140332375	1
0	2829	138.820004443292	1
0	2837	138.969564427377	1
0	2852	139.427025342074	1
0	2855	139.515689254289	1
0	2857	139.524672176182	1
0	2881	140.342912847682	1
0	2892	142.630199464202	1
0	2898	142.885622187588	1
0	2914	143.396245562823	1
0	2925	143.913418365291	1
0	2936	144.854848126166	1
0	2942	144.965456401309	1
0	2957	145.46017218236	1
0	2960	145.483399029074	1
0	2977	146.742379125601	1
0	2988	147.761920237995	1
0	2999	148.28844476106	1
0	3010	149.292718160014	1
0	3021	150.033067810122	1
0	3027	150.158342776387	1
0	3030	150.254819817283	1
0	3044	150.534964772536	1
0	3056	150.87060753244	1
0	3072	151.688604721478	1
0	3083	152.398891310234	1
0	3089	152.52255092189	1
0	3092	152.588854991918	1
0	3106	152.909309298143	1
0	3118	153.256777582934	1
0	3129	153.41438032046	1
0	3134	153.523438891231	1
0	3154	154.159575268485	1
0	3165	154.583896919756	1
0	3176	155.451204541624	1
0	3187	156.476878371137	1
0	3198	157.557524893352	1
0	3201	157.614181680199	1
0	3206	157.757298082402	1
0	3227	158.723167104279	1
0	3238	160.684741443285	1
0	3249	161.184361304648	1
0	3255	161.365949673462	1
0	3270	161.899954734731	1
0	3281	163.096001983993	1
0	3287	163.228465298816	1
0	3290	163.309870829054	1
0	3304	163.653617261329	1
0	3316	163.931698404554	1
0	3327	164.142202540936	1
0	3343	164.810925057387	1
0	3346	164.833893739427	1
0	3363	166.463412330207	1
0	3366	166.482111615341	1
0	3381	166.973201183556	1
0	3392	167.335300256865	1
0	3405	168.004967355194	1
0	3416	168.824542666427	1
0	3419	168.872654218653	1
0	3434	169.361565756846	1
0	3442	169.534083993721	1
0	3452	169.825874641694	1
0	3463	170.089518689913	1
0	3472	170.199924895888	1
0	3475	170.214151487931	1
0	3498	171.307215486709	1
0	3509	172.948428426447	1
0	3520	173.496782245345	1
0	3526	173.637910184613	1
0	3541	174.553836944645	1
0	3552	175.069744870756	1
0	3563	176.202083032281	1
0	3574	176.724081427609	1
0	3585	177.278619195858	1
0	3591	177.438501307268	1
0	3606	178.349877536147	1
0	3615	178.745680828799	1
0	3628	179.319537475138	1
0	3639	179.794712753665	1
0	3642	179.807548184139	1
0	3659	181.040104036675	1
0	3670	181.872996742033	1
0	3681	183.868139378064	1
0	3687	183.984320908347	1
0	3692	184.090084457245	1
0	3705	184.45814753356	1
0	3710	184.468368222565	1
0	3726	184.900214116103	1
0	3729	184.91052010833	1
0	3746	185.307533511375	1
0	3755	185.440546554023	1
0	3772	186.556771762292	1
0	3783	187.929661918509	1
0	3789	188.044949719947	1
0	3804	188.969613221503	1
0	3807	188.978459033453	1
0	3824	189.673327325128	1
0	3835	190.80667585769	1
0	3841	191.04386512454	1
0	3857	191.858313382555	1
0	3866	192.173359826171	1
0	3877	192.539413277125	1
0	3890	193.051224371094	1
0	3899	193.37486068737	1
0	3902	193.375452980306	1
0	3904	193.449927254545	1
0	3930	194.281350067013	1
0	3936	194.529459745803	1
0	3952	195.363253425372	1
0	3955	195.422919621514	1
0	3965	195.712916472116	1
0	3982	196.467827886003	1
0	3988	196.747854288485	1
0	3994	196.795985432367	1
0	4013	197.9056765778	1
0	4019	198.044042082135	1
0	4034	198.898555667977	1
0	4045	199.410230142625	1
0	4051	199.518986820584	1
0	4059	199.727727709099	1
1	2	0.885260666985	1
1	8	1.098204707713	1
1	11	1.110786884288	1
1	28	1.520217977924	1
1	44	2.122714752752	1
1	53	2.473844876294	1
1	66	3.302757656789	1
1	77	4.372715954934	1
1	88	4.786815349299	1
1	99	5.312079900445	1
1	105	5.464857837894	1
1	108	5.480154214266	1
1	115	5.612589248779	1
1	138	6.353677496298	1
1	149	7.21127555901	1
1	155	7.39646874993	1
1	160	7.507624070724	1
1	170	7.691215488735	1
1	176	7.746708266185	1
1	182	7.844486413032	1
1	206	8.538281749246	1
1	219	9.229144928029	1
1	230	11.068752075178	1
1	241	12.086409513648	1
1	244	12.088783163029	1
1	251	12.334531727842	1
1	266	12.765232085844	1
1	282	14.094067447467	1
1	293	15.098840513282	1
1	299	15.231319655933	1
1	314	15.800183687409	1
1	317	15.818840765396	1
1	334	16.586393394878	1
1	345	17.846743173386	1
1	351	18.053824864946	1
1	367	18.833752886188	1
1	378	20.332724018173	1
1	389	20.799791434058	1
1	400	21.552058674018	1
1	403	21.63662237845	1
1	418	22.105867605315	1
1	429	22.426188426755	1
1	434	22.518198060657	1
1	451	23.423217802749	1
1	457	23.703629219307	1
1	473	24.229728988484	1
1	484	24.902489701689	1
1	490	25.023488804893	1
1	500	25.373347240215	1
1	516	26.42285091698	1
1	525	26.764362473682	1
1	530	26.831190853246	1
1	547	27.408225772667	1
1	553	27.60831620776	1
1	569	28.040181245393	1
1	572	28.080868059397	1
1	589	28.711442610506	1
1	592	28.746302468641	1
1	607	29.297637361279	1
1	620	30.167704139262	1
1	631	31.149244740556	1
1	634	31.156359577891	1
1	646	31.598803565521	1
1	662	32.166765912187	1
1	673	33.602592785494	1
1	679	33.844567299654	1
1	690	34.075291128587	1
1	706	34.567400151615	1
1	709	34.62428950407	1
1	719	34.869521427159	1
1	729	35.084126742884	1
1	741	35.401910188411	1
1	747	35.474522596086	1
1	752	35.522504298052	1
1	775	36.58104220554	1
1	786	37.731611331948	1
1	789	37.760430284329	1
1	799	38.108307937847	1
1	816	38.698868472116	1
1	819	38.776902351272	1
1	834	39.252797104626	1
1	847	40.042264250509	1
1	858	41.068771337714	1
1	861	41.15841622854	1
1	868	41.29151353276	1
1	888	42.165234812161	1
1	899	43.331553407246	1
1	910	44.401791638459	1
1	916	44.661788843428	1
1	927	44.884234087796	1
1	943	45.727270155136	1
1	954	46.27342894867	1
1	960	46.483982463912	1
1	976	47.719259947619	1
1	987	49.011430500819	1
1	998	51.456892571404	1
1	1004	51.693173085911	1
1	1018	52.071167545245	1
1	1026	52.17937310067	1
1	1041	53.430622287649	1
1	1047	53.729693038005	1
1	1058	53.940337745322	1
1	1061	53.999210070371	1
1	1069	54.083658352506	1
1	1092	55.116234288052	1
1	1103	56.226444595051	1
1	1106	56.324769692989	1
1	1123	56.970357256825	1
1	1129	57.26117373085	1
1	1145	57.804146277589	1
1	1156	59.536388263524	1
1	1165	59.880385272418	1
1	1178	62.515654600387	1
1	1184	62.779921803394	1
1	1198	63.145541413799	1
1	1211	63.676316257877	1
1	1222	64.725960000594	1
1	1225	64.823098300394	1
1	1232	64.99680786037	1
1	1240	65.109501647194	1
1	1260	65.655346459403	1
1	1271	65.959013031303	1
1	1284	67.357799827367	1
1	1295	67.967386193212	1
1	1306	68.426246799878	1
1	1312	68.705872840139	1
1	1328	69.241126470131	1
1	1331	69.242572268564	1
1	1333	69.266616735804	2
1	1350	69.744145229598	1
1	1360	70.009281193152	1
1	1365	70.090753677668	1
1	1369	70.140530363637	1
1	1374	70.190424138868	2
1	1385	70.409127383864	1
1	1396	70.569885324716	1
1	1406	70.81081637004	1
1	1428	71.458040308583	1
1	1444	72.349922108845	1
1	1450	72.495129272875	1
1	1453	72.519596976797	1
1	1460	72.655772432191	1
1	1473	72.992509473204	1
1	1486	73.282110069831	1
1	1496	73.509047886636	1
1	1506	73.661884769821	1
1	1523	74.269055743754	1
1	1526	74.342118269907	1
1	1536	74.597225595442	1
1	1553	75.122051570078	1
1	1556	75.148483742987	1
1	1561	75.307364107861	1
1	1582	76.579098241756	1
1	1593	77.066957331825	1
1	1604	77.931383800689	1
1	1615	78.376547921936	1
1	1626	79.639263943808	1
1	1632	79.898618861325	1
1	1646	80.222883937853	1
1	1659	80.956026737138	1
1	1670	81.514226397333	1
1	1681	82.545455865065	1
1	1692	82.977725737861	1
1	1695	83.064438155561	1
1	1712	83.610976314337	1
1	1723	84.167882206267	1
1	1729	84.350344438762	1
1	1737	84.550076193138	1
1	1747	84.764828461684	1
1	1764	85.188455858812	1
1	1767	85.203892614461	1
1	1769	85.227424352556	2
1	1776	85.444060132402	1
1	1787	85.686539415256	1
1	1797	85.852842614319	1
1	1800	85.853006153426	1
1	1819	86.342301072797	1
1	1841	86.997859167963	1
1	1852	87.498004459435	1
1	1858	87.782354264574	1
1	1872	88.169119631774	1
1	1885	88.995120869376	1
1	1891	89.202984216482	1
1	1894	89.293879794969	1
1	1902	89.33372463643	1
1	1915	89.628386915297	1
1	1935	91.94118140222	1
1	1946	93.14933612459	1
1	1952	93.398379852699	1
1	1968	95.284269815314	1
1	1979	95.694245705922	1
1	1988	96.094211564498	1
1	2001	98.359677895439	1
1	2004	98.426862673503	1
1	2016	98.775583440658	1
1	2027	99.024926606941	1
1	2038	99.254802031283	1
1	2054	100.337967113118	1
1	2065	100.778094908846	1
1	2074	101.153883512331	1
1	2087	101.671727505761	1
1	2090	101.730200018807	1
1	2107	102.88441699533	1
1	2118	104.041765643434	1
1	2121	104.084081747311	1
1	2128	104.330903616438	1
1	2143	104.705670767217	1
1	2159	105.264736904683	1
1	2170	106.178553024589	1
1	2173	106.25027236625	1
1	2190	107.011065234478	1
1	2201	107.482118050751	1
1	2212	108.011283484756	1
1	2223	108.776776596005	1
1	2226	108.799456544122	1
1	2243	110.004579684975	1
1	2249	110.263655645855	1
1	2255	110.358842893758	1
1	2272	110.855798017536	1
1	2277	110.921272620402	1
1	2284	111.135046093168	1
1	2299	111.539705744271	1
1	2315	111.97058065881	1
1	2318	111.988348907714	1
1	2335	112.659883325882	1
1	2346	113.201998289425	1
1	2352	113.306034692265	1
1	2357	113.444321025598	1
1	2360	113.475398766944	1
1	2369	113.611390822672	1
1	2380	113.858717810178	1
1	2405	114.973941706995	1
1	2408	115.042558096778	1
1	2413	115.080683987956	1
1	2417	115.198952263632	1
1	2433	115.613918102832	1
1	2453	116.915942887622	1
1	2459	117.087326963597	1
1	2469	117.360150083839	1
1	2480	117.597884473292	1
1	2489	117.746015383965	1
1	2492	117.747767591322	1
1	2515	118.585565122181	1
1	2521	118.795676016248	1
1	2524	118.863496330222	1
1	2546	121.464084033144	1
1	2557	122.28304625679	1
1	2563	122.446393528937	1
1	2576	122.82707747404	1
1	2589	123.620273069299	1
1	2600	124.167436696263	1
1	2611	126.132654991494	1
1	2614	126.22848882805	1
1	2631	127.242408571766	1
1	2637	127.364438730311	1
1	2652	128.075386049031	1
1	2663	128.696890463835	1
1	2669	128.838852777561	1
1	2672	128.868762856425	1
1	2688	129.306455481279	1
1	2697	129.477955754535	1
1	2714	131.271447987915	1
1	2725	131.740515059806	1
1	2736	132.454900034582	1
1	2742	132.609209866798	1
1	2757	134.019423171488	1
1	2763	134.307612212998	1
1	2779	134.93390333708	1
1	2790	136.466324538094	1
1	2796	136.720473401148	1
1	2812	138.277495519701	1
1	2815	138.318140332375	1
1	2830	138.820004443292	1
1	2838	138.969564427377	1
1	2853	139.427025342074	1
1	2856	139.515689254289	1
1	2858	139.524672176182	2
1	2882	140.342912847682	1
1	2893	142.630199464202	1
1	2899	142.885622187588	1
1	2915	143.396245562823	1
1	2926	143.913418365291	1
1	2937	144.854848126166	1
1	2943	144.965456401309	1
1	2958	145.46017218236	1
1	2961	145.483399029074	1
1	2978	146.742379125601	1
1	2989	147.761920237995	1
1	3000	148.28844476106	1
1	3011	149.292718160014	1
1	3022	150.033067810122	1
1	3028	150.158342776387	1
1	3031	150.254819817283	1
1	3045	150.534964772536	1
1	3057	150.87060753244	1
1	3073	151.688604721478	1
1	3084	152.398891310234	1
1	3090	152.52255092189	1
1	3093	152.588854991918	1
1	3107	152.909309298143	1
1	3119	153.256777582934	1
1	3130	153.41438032046	1
1	3135	153.523438891231	1
1	3155	154.159575268485	1
1	3166	154.583896919756	1
1	3177	155.451204541624	1
1	3188	156.476878371137	1
1	3199	157.557524893352	1
1	3202	157.614181680199	1
1	3207	157.757298082402	1
1	3228	158.723167104279	1
1	3239	160.684741443285	1
1	3250	161.184361304648	1
1	3256	161.365949673462	1
1	3271	161.899954734731	1
1	3282	163.096001983993	1
1	3288	163.228465298816	1
1	3291	163.309870829054	1
1	3305	163.653617261329	1
1	3317	163.931698404554	1
1	3328	164.142202540936	1
1	3344	164.810925057387	1
1	3347	164.833893739427	1
1	3364	166.463412330207	1
1	3367	166.482111615341	1
1	3382	166.973201183556	1
1	3393	167.335300256865	1
1	3406	168.004967355194	1
1	3417	168.824542666427	1
1	3420	168.872654218653	1
1	3435	169.361565756846	1
1	3443	169.534083993721	1
1	3453	169.825874641694	1
1	3464	170.089518689913	1
1	3473	170.199924895888	1
1	3476	170.214151487931	1
1	3499	171.307215486709	1
1	3510	172.948428426447	1
1	3521	173.496782245345	1
1	3527	173.637910184613	1
1	3542	174.553836944645	1
1	3553	175.069744870756	1
1	3564	176.202083032281	1
1	3575	176.724081427609	1
1	3586	177.278619195858	1
1	3592	177.438501307268	1
1	3607	178.349877536147	1
1	3616	178.745680828799	1
1	3629	179.319537475138	1
1	3640	179.794712753665	1
1	3643	179.807548184139	1
1	3660	181.040104036675	1
1	3671	181.872996742033	1
1	3682	183.868139378064	1
1	3688	183.984320908347	1
1	3693	184.090084457245	1
1	3706	184.45814753356	1
1	3711	184.468368222565	1
1	3727	184.900214116103	1
1	3730	184.91052010833	1
1	3747	185.307533511375	1
1	3756	185.440546554023	1
1	3773	186.556771762292	1
1	3784	187.929661918509	1
1	3790	188.044949719947	1
1	3805	188.969613221503	1
1	3808	188.978459033453	1
1	3825	189.673327325128	1
1	3836	190.80667585769	1
1	3842	191.04386512454	1
1	3858	191.858313382555	1
1	3867	192.173359826171	1
1	3878	192.539413277125	1
1	3891	193.051224371094	1
1	3900	193.37486068737	1
1	3903	193.375452980306	1
1	3905	193.449927254545	2
1	3931	194.281350067013	1
1	3937	194.529459745803	1
1	3953	195.363253425372	1
1	3956	195.422919621514	1
1	3966	195.712916472116	1
1	3983	196.467827886003	1
1	3989	196.747854288485	1
1	3995	196.795985432367	1
1	4014	197.9056765778	1
1	4020	198.044042082135	1
1	4035	198.898555667977	1
1	4046	199.410230142625	1
1	4052	199.518986820584	1
1	4060	199.727727709099	1
2	5	0.985360666985	1
2	16	1.198304707713	1
2	21	1.298304707713	1
2	34	1.620317977924	1
2	47	2.222814752752	1
2	58	2.573944876294	1
2	69	3.402857656789	1
2	80	4.472815954934	1
2	91	4.886915349299	1
2	102	5.412179900445	1
2	110	5.564957837894	1
2	117	5.664957837894	1
2	121	5.764957837894	2
2	141	6.453777496298	1
2	152	7.31137555901	1
2	158	7.49656874993	1
2	166	7.607724070724	1
2	178	7.791315488735	1
2	184	7.891315488735	2
2	189	7.991315488735	2
2	211	8.638381749246	1
2	222	9.329244928029	1
2	233	11.168852075178	1
2	246	12.186509513648	1
2	249	12.286509513648	1
2	257	12.434631727842	1
2	272	12.865332085844	1
2	285	14.194167447467	1
2	296	15.198940513282	1
2	302	15.331419655933	1
2	319	15.900283687409	1
2	322	16.000283687409	1
2	337	16.686493394878	1
2	348	17.946843173386	1
2	357	18.153924864946	1
2	370	18.933852886188	1
2	381	20.432824018173	1
2	392	20.899891434058	1
2	405	21.652158674018	1
2	408	21.752158674018	1
2	423	22.205967605315	1
2	436	22.526288426755	1
2	439	22.626288426755	1
2	454	23.523317802749	1
2	463	23.803729219307	1
2	476	24.329828988484	1
2	487	25.002589701689	1
2	493	25.123588804893	1
2	506	25.473447240215	1
2	519	26.52295091698	1
2	532	26.864462473682	1
2	535	26.964462473682	1
2	550	27.508325772667	1
2	557	27.70841620776	1
2	574	28.140281245393	1
2	577	28.240281245393	1
2	594	28.811542610506	1
2	597	28.911542610506	1
2	612	29.397737361279	1
2	623	30.267804139262	1
2	636	31.249344740556	1
2	639	31.349344740556	1
2	652	31.698903565521	1
2	665	32.266865912187	1
2	676	33.702692785494	1
2	685	33.944667299654	1
2	696	34.175391128587	1
2	711	34.667500151615	1
2	714	34.767500151615	1
2	724	34.969621427159	1
2	734	35.184226742884	1
2	749	35.502010188411	1
2	756	35.602010188411	1
2	759	35.702010188411	1
2	778	36.68114220554	1
2	791	37.831711331948	1
2	794	37.931711331948	1
2	804	38.208407937847	1
2	821	38.798968472116	1
2	824	38.898968472116	1
2	839	39.352897104626	1
2	850	40.142364250509	1
2	863	41.168871337714	1
2	866	41.268871337714	1
2	874	41.39161353276	1
2	891	42.265334812161	1
2	902	43.431653407246	1
2	913	44.501891638459	1
2	922	44.761888843428	1
2	933	44.984334087796	1
2	946	45.827370155136	1
2	957	46.37352894867	1
2	966	46.584082463912	1
2	979	47.819359947619	1
2	990	49.111530500819	1
2	1001	51.556992571404	1
2	1010	51.793273085911	1
2	1023	52.171267545245	1
2	1029	52.27947310067	1
2	1044	53.530722287649	1
2	1053	53.829793038005	1
2	1066	54.040437745322	1
2	1073	54.140437745322	1
2	1076	54.240437745322	1
2	1095	55.216334288052	1
2	1108	56.326544595051	1
2	1111	56.426544595051	1
2	1126	57.070457256825	1
2	1135	57.36127373085	1
2	1148	57.904246277589	1
2	1159	59.636488263524	1
2	1170	59.980485272418	1
2	1181	62.615754600387	1
2	1190	62.880021803394	1
2	1203	63.245641413799	1
2	1214	63.776416257877	1
2	1227	64.826060000594	1
2	1230	64.926060000594	1
2	1238	65.09690786037	1
2	1245	65.209601647194	2
2	1265	65.755446459403	1
2	1276	66.059113031303	1
2	1287	67.457899827367	1
2	1298	68.067486193212	1
2	1309	68.526346799878	1
2	1318	68.805972840139	1
2	1335	69.341226470131	1
2	1338	69.441226470131	1
2	1341	69.541226470131	1
2	1355	69.844245229598	1
2	1367	70.109381193152	1
2	1376	70.209381193152	1
2	1380	70.309381193152	2
2	1387	70.409381193152	2
2	1391	70.509381193152	3
2	1401	70.669985324716	3
2	1411	70.91091637004	3
2	1434	71.558140308583	1
2	1447	72.450022108845	1
2	1455	72.595229272875	1
2	1462	72.695229272875	1
2	1466	72.795229272875	2
2	1479	73.092609473204	1
2	1491	73.382210069831	1
2	1501	73.609147886636	1
2	1511	73.761984769821	1
2	1528	74.369155743754	1
2	1531	74.469155743754	1
2	1541	74.697325595442	1
2	1558	75.222151570078	1
2	1563	75.322151570078	1
2	1566	75.422151570078	1
2	1585	76.679198241756	1
2	1596	77.167057331825	1
2	1607	78.031483800689	1
2	1618	78.476647921936	1
2	1629	79.739363943808	1
2	1638	79.998718861325	1
2	1651	80.322983937853	1
2	1662	81.056126737138	1
2	1673	81.614326397333	1
2	1684	82.645555865065	1
2	1697	83.077825737861	1
2	1700	83.177825737861	1
2	1715	83.711076314337	1
2	1726	84.267982206267	1
2	1732	84.450444438762	1
2	1742	84.650176193138	1
2	1752	84.864928461684	1
2	1771	85.288555858812	1
2	1774	85.388555858812	1
2	1779	85.488555858812	1
2	1783	85.588555858812	2
2	1793	85.786639415256	2
2	1805	85.952942614319	2
2	1809	86.052942614319	3
2	1824	86.442401072797	2
2	1844	87.097959167963	1
2	1855	87.598104459435	1
2	1864	87.882454264574	1
2	1877	88.269219631774	1
2	1888	89.095220869376	1
2	1899	89.303084216482	1
2	1906	89.403084216482	1
2	1909	89.503084216482	1
2	1921	89.728486915297	1
2	1938	92.04128140222	1
2	1949	93.24943612459	1
2	1958	93.498479852699	1
2	1971	95.384369815314	1
2	1982	95.794345705922	1
2	1993	96.194311564498	1
2	2006	98.459777895439	1
2	2009	98.559777895439	1
2	2022	98.875683440658	1
2	2033	99.125026606941	1
2	2044	99.354902031283	1
2	2057	100.438067113118	1
2	2068	100.878194908846	1
2	2079	101.253983512331	1
2	2092	101.771827505761	1
2	2095	101.871827505761	1
2	2110	102.98451699533	1
2	2123	104.141865643434	1
2	2126	104.241865643434	1
2	2134	104.431003616438	1
2	2149	104.805770767217	1
2	2162	105.364836904683	1
2	2175	106.278653024589	1
2	2178	106.378653024589	1
2	2193	107.111165234478	1
2	2204	107.582218050751	1
2	2215	108.111383484756	1
2	2228	108.876876596005	1
2	2231	108.976876596005	1
2	2246	110.104679684975	1
2	2257	110.363755645855	1
2	2262	110.463755645855	1
2	2279	110.955898017536	1
2	2282	111.055898017536	1
2	2290	111.235146093168	1
2	2305	111.639805744271	1
2	2320	112.07068065881	1
2	2323	112.17068065881	1
2	2338	112.759983325882	1
2	2349	113.302098289425	1
2	2355	113.406134692265	1
2	2365	113.544421025598	1
2	2371	113.644421025598	2
2	2376	113.744421025598	2
2	2386	113.958817810178	2
2	2410	115.074041706995	1
2	2415	115.174041706995	1
2	2420	115.274041706995	1
2	2424	115.374041706995	2
2	2439	115.714018102832	1
2	2456	117.016042887622	1
2	2462	117.187426963597	1
2	2475	117.460250083839	1
2	2486	117.697984473292	1
2	2496	117.846115383965	1
2	2501	117.946115383965	1
2	2518	118.685665122181	1
2	2529	118.895776016248	1
2	2534	118.995776016248	1
2	2549	121.564184033144	1
2	2560	122.38314625679	1
2	2566	122.546493528937	1
2	2581	122.92717747404	1
2	2592	123.720373069299	1
2	2603	124.267536696263	1
2	2616	126.232754991494	1
2	2619	126.332754991494	1
2	2634	127.342508571766	1
2	2640	127.464538730311	1
2	2655	128.175486049031	1
2	2666	128.796990463835	1
2	2674	128.938952777561	1
2	2679	129.038952777561	1
2	2694	129.406555481279	1
2	2702	129.578055754535	1
2	2717	131.371547987915	1
2	2728	131.840615059806	1
2	2739	132.555000034582	1
2	2745	132.709309866798	1
2	2760	134.119523171488	1
2	2769	134.407712212998	1
2	2782	135.03400333708	1
2	2793	136.566424538094	1
2	2802	136.820573401148	1
2	2817	138.377595519701	1
2	2820	138.477595519701	1
2	2835	138.920104443292	1
2	2841	139.069664427377	1
2	2860	139.527125342074	1
2	2863	139.627125342074	1
2	2866	139.727125342074	1
2	2885	140.443012847682	1
2	2896	142.730299464202	1
2	2905	142.985722187588	1
2	2918	143.496345562823	1
2	2929	144.013518365291	1
2	2940	144.954948126166	1
2	2946	145.065556401309	1
2	2963	145.56027218236	1
2	2966	145.66027218236	1
2	2981	146.842479125601	1
2	2992	147.862020237995	1
2	3003	148.38854476106	1
2	3014	149.392818160014	1
2	3025	150.133167810122	1
2	3033	150.258442776387	1
2	3038	150.358442776387	1
2	3050	150.635064772536	1
2	3063	150.97070753244	1
2	3076	151.788704721478	1
2	3087	152.498991310234	1
2	3095	152.62265092189	1
2	3100	152.72265092189	1
2	3112	153.009409298143	1
2	3125	153.356877582934	1
2	3133	153.51448032046	1
2	3141	153.623538891231	1
2	3158	154.259675268485	1
2	3169	154.683996919756	1
2	3180	155.551304541624	1
2	3191	156.576978371137	1
2	3204	157.657624893352	1
2	3209	157.757624893352	1
2	3212	157.857624893352	1
2	3231	158.823267104279	1
2	3242	160.784841443285	1
2	3253	161.284461304648	1
2	3259	161.466049673462	1
2	3274	162.000054734731	1
2	3285	163.196101983993	1
2	3293	163.328565298816	1
2	3298	163.428565298816	1
2	3310	163.753717261329	1
2	3323	164.031798404554	1
2	3334	164.242302540936	1
2	3349	164.911025057387	1
2	3352	165.011025057387	1
2	3369	166.563512330207	1
2	3372	166.663512330207	1
2	3387	167.073301183556	1
2	3398	167.435400256865	1
2	3409	168.105067355194	1
2	3422	168.924642666427	1
2	3425	169.024642666427	1
2	3440	169.461665756846	1
2	3446	169.634183993721	1
2	3459	169.925974641694	1
2	3470	170.189618689913	1
2	3480	170.300024895888	1
2	3485	170.400024895888	1
2	3502	171.407315486709	1
2	3513	173.048528426447	1
2	3524	173.596882245345	1
2	3530	173.738010184613	1
2	3545	174.653936944645	1
2	3556	175.169844870756	1
2	3567	176.302183032281	1
2	3578	176.824181427609	1
2	3589	177.378719195858	1
2	3595	177.538601307268	1
2	3610	178.449977536147	1
2	3621	178.845780828799	1
2	3632	179.419637475138	1
2	3645	179.894812753665	1
2	3648	179.994812753665	1
2	3663	181.140204036675	1
2	3674	181.973096742033	1
2	3685	183.968239378064	1
2	3691	184.084420908347	1
2	3699	184.190184457245	1
2	3713	184.55824753356	1
2	3718	184.65824753356	1
2	3735	185.000314116103	1
2	3740	185.100314116103	1
2	3753	185.407633511375	1
2	3761	185.540646554023	1
2	3776	186.656871762292	1
2	3787	188.029761918509	1
2	3793	188.145049719947	1
2	3810	189.069713221503	1
2	3813	189.169713221503	1
2	3828	189.773427325128	1
2	3839	190.90677585769	1
2	3848	191.14396512454	1
2	3861	191.958413382555	1
2	3872	192.273459826171	1
2	3883	192.639513277125	1