version 3
run BaseVersion-4-20240511-20:48:36-11938
attr configname BaseVersion
attr datetime 20240511-20:48:36
attr datetimef 20240511-204836
attr experiment BaseVersion
attr inifile omnetpp.ini
attr iterationvars $genInterval=0.3
attr iterationvarsd genInterval=0.3
attr iterationvarsf genInterval=0.3-
attr measurement $genInterval=0.3
attr network Network
attr processid 11938
attr repetition 0
attr replication #0
attr resultdir results
attr runnumber 4
attr seedset 4
itervar genInterval 0.3
config network Network
config sim-time-limit 200s
config Network.nodeTx.gen.generationInterval exponential(0.3)
config Network.nodeTx.gen.packetByteSize 12500
config Network.nodeTx.queue.bufferSize 200
config Network.nodeRx.queue.bufferSize 200
config Network.queue.bufferSize 200

vector 0 Network.nodeTx.gen packetGen ETV
vector 1 Network.nodeTx.queue bufferSize ETV
vector 2 Network.queue bufferSize ETV
vector 3 Network.nodeRx.queue bufferSize ETV
vector 4 Network.nodeRx.sink Delay ETV
vector 5 Network.nodeRx.sink packetUsed ETV
0	1	1.023645695755	1
0	12	1.716291404947	1
0	18	1.954004200535	1
0	21	2.010878873098	1
0	43	3.090967559374	1
0	54	3.671561492565	1
0	63	4.04794769467	1
0	71	4.329689324744	1
0	85	4.688618544298	1
0	93	4.961678494307	1
0	99	5.034716621522	1
0	104	5.080474681701	1
0	127	6.20283556729	1
0	130	6.279112048942	1
0	132	6.28098697275	1
0	146	6.640603198289	1
0	152	6.728103142595	1
0	175	7.428569084729	1
0	181	7.599737277222	1
0	191	7.900425144134	1
0	207	8.353823177207	1
0	210	8.35537492848	1
0	212	8.421451149347	1
0	224	8.67629075593	1
0	244	9.272608248886	1
0	252	9.407196610953	1
0	267	10.636714555671	1
0	273	10.914716844937	1
0	279	10.968398238985	1
0	288	11.117557016163	1
0	298	11.390451326963	1
0	316	11.891761955989	1
0	319	11.894469969879	1
0	328	12.178901420116	1
0	338	12.325508783341	1
0	344	12.418476365327	1
0	348	12.432025805336	1
0	361	12.741800928387	1
0	386	13.683356031649	1
0	397	14.183257105652	1
0	403	14.355145428615	1
0	406	14.360907840633	1
0	427	15.253553275676	1
0	430	15.265731245021	1
0	442	15.728694281047	1
0	458	16.598841881528	1
0	469	17.202464905511	1
0	475	17.379831240579	1
0	478	17.436876429218	1
0	489	17.611545277627	1
0	492	17.634917065966	1
0	494	17.655307436794	1
0	510	17.930752219452	1
0	513	17.988777127193	1
0	519	18.043943948924	1
0	540	18.646656218649	1
0	555	19.043235661364	1
0	573	19.599699348536	1
0	581	19.757198953536	1
0	596	20.534892365844	1
0	602	20.760067308708	1
0	618	21.372841642992	1
0	629	22.20496206433	1
0	640	22.745972110017	1
0	646	22.967224817693	1
0	652	23.057950690631	1
0	657	23.092302481932	1
0	659	23.103226434054	1
0	663	23.154898622937	1
0	667	23.232826362542	1
0	683	23.469197368243	1
0	685	23.540362715873	1
0	696	23.763318726297	1
0	702	23.82311775586	1
0	716	24.127628251493	1
0	723	24.241618437443	1
0	733	24.395614779182	1
0	739	24.478356088981	1
0	752	24.793135726998	1
0	760	24.934313716128	1
0	770	25.086015395448	1
0	782	25.386458873227	1
0	795	25.679841792708	1
0	798	25.755548827778	1
0	816	26.193085746678	1
0	819	26.23789730319	1
0	826	26.29705742	1
0	837	26.55517020022	1
0	847	26.696447785042	1
0	854	26.826456138385	1
0	864	27.035923992163	1
0	874	27.225116783715	1
0	889	27.573263488772	1
0	897	27.706571913617	1
0	902	27.794352019004	1
0	906	27.820401686107	1
0	917	28.063131337942	1
0	923	28.150602066733	1
0	936	28.444795527734	1
0	939	28.459365315474	1
0	963	29.136939112769	1
0	988	29.932184932583	1
0	996	30.067411673936	1
0	1001	30.148223419108	1
0	1014	30.452689893039	1
0	1032	30.952341516286	1
0	1037	31.016094011022	1
0	1041	31.056558843428	1
0	1052	31.263182381062	1
0	1058	31.286800025712	1
0	1060	31.347231302948	1
0	1078	31.694346812362	1
0	1100	32.446062267579	1
0	1120	33.327720589736	1
0	1126	33.497316787589	1
0	1131	33.611112823131	1
0	1151	34.143031996128	1
0	1162	34.769933081276	1
0	1168	34.931688423095	1
0	1181	35.291051454822	1
0	1194	35.996167087625	1
0	1200	36.128357903462	1
0	1205	36.284027950368	1
0	1225	36.988855788373	1
0	1231	37.109525417679	1
0	1236	37.251208627256	1
0	1249	37.505895537405	1
0	1266	38.068546673158	1
0	1277	38.628705630261	1
0	1286	39.025353694823	1
0	1299	39.617368979614	1
0	1308	39.977543573471	1
0	1316	40.249214186989	1
0	1330	40.581367735987	1
0	1333	40.607906173818	1
0	1335	40.632913886999	1
0	1349	40.905758034526	1
0	1352	40.919460606661	1
0	1356	41.003952202064	1
0	1360	41.033963970846	1
0	1378	41.429659509036	1
0	1384	41.503211190898	1
0	1405	42.178355015375	1
0	1422	42.67190026325	1
0	1433	42.888817672687	1
0	1436	42.920552663183	1
0	1451	43.198124491454	1
0	1454	43.218047012657	1
0	1456	43.238231394903	1
0	1486	44.102688336438	1
0	1492	44.335695717887	1
0	1495	44.389029106144	1
0	1500	44.43052743742	1
0	1514	44.699380975664	1
0	1526	44.985394109411	1
0	1546	45.886249333956	1
0	1552	46.021851464566	1
0	1557	46.158927779804	1
0	1575	46.596920437222	1
0	1578	46.603477178191	1
0	1580	46.618402620038	1
0	1589	46.839015169838	1
0	1591	46.873914012885	1
0	1598	46.983937082416	1
0	1616	47.329563042594	1
0	1633	47.866758459719	1
0	1643	48.08362624318	1
0	1663	48.878710386484	1
0	1669	49.133048744802	1
0	1672	49.174460463182	1
0	1692	49.731267288676	1
0	1705	50.264864767356	1
0	1711	50.465540273782	1
0	1727	50.929131727358	1
0	1738	51.427579211762	1
0	1747	51.778589893782	1
0	1755	51.992744059485	1
0	1769	52.308069028895	1
0	1782	53.09211210881	1
0	1793	53.922889496079	1
0	1802	54.252708267775	1
0	1807	54.333524075402	1
0	1812	54.381830740196	1
0	1821	54.578852140021	1
0	1828	54.71488019785	1
0	1853	55.501752887563	1
0	1864	56.104224039868	1
0	1867	56.162812517704	1
0	1872	56.292179058716	1
0	1876	56.342005440818	1
0	1883	56.404861135141	1
0	1911	57.434478408183	1
0	1917	57.626429332756	1
0	1925	57.74239980895	1
0	1932	57.892059622452	1
0	1952	58.542993180275	1
0	1958	58.832424777985	1
0	1969	59.068910753767	1
0	1980	59.241128940033	1
0	1988	59.380266794676	1
0	1993	59.470972403346	1
0	1997	59.515148793396	1
0	2006	59.674698314473	1
0	2010	59.710505835518	1
0	2019	59.873424769539	1
0	2023	59.895933417085	1
0	2047	60.594063949398	1
0	2050	60.658482322332	1
0	2078	61.826387695608	1
0	2081	61.827266961517	1
0	2088	62.120372987605	1
0	2108	62.748539462135	1
0	2111	62.774594044841	1
0	2128	63.604621397629	1
0	2137	64.00077194105	1
0	2145	64.210309161176	1
0	2159	64.550909535556	1
0	2172	64.963806582545	1
0	2183	65.488456010343	1
0	2189	65.689385472772	1
0	2198	65.817446342031	1
0	2201	65.818624923235	1
0	2203	65.836830339385	1
0	2214	66.022983070539	1
0	2227	66.306870315231	1
0	2230	66.354028722261	1
0	2235	66.393750485954	1
0	2241	66.504545945282	1
0	2259	66.93209333935	1
0	2274	67.351861122423	1
0	2292	67.826441968898	1
0	2307	68.248831485962	1
0	2315	68.406423873827	1
0	2330	69.154953913269	1
0	2341	70.0185921529	1
0	2352	70.823697587265	1
0	2355	70.88096577194	1
0	2357	70.909305701112	1
0	2381	71.766545076903	1
0	2384	71.83173255546	1
0	2391	72.019653825883	1
0	2404	72.2669508915	1
0	2419	72.698851392687	1
0	2422	72.701995815841	1
0	2436	73.121287597491	1
0	2442	73.199656860594	1
0	2461	74.391984797667	1
0	2464	74.403252232204	1
0	2481	75.489932628514	1
0	2484	75.51637957429	1
0	2486	75.528654649488	1
0	2498	75.854336018263	1
0	2501	75.859166075646	1
0	2514	76.121958077789	1
0	2524	76.35707028276	1
0	2539	76.746404842379	1
0	2542	76.756744271141	1
0	2566	77.460945655309	1
0	2577	77.782377285447	1
0	2580	77.787434979062	1
0	2589	78.01708750947	1
0	2609	78.69809922698	1
0	2618	79.027585487752	1
0	2626	79.237879410175	1
0	2635	79.412544054045	1
0	2647	79.698756981269	1
0	2653	79.794187596909	1
0	2658	79.837607126244	1
0	2681	80.73434701722	1
0	2687	80.925926570284	1
0	2700	81.316809853355	1
0	2711	81.61881359917	1
0	2714	81.62071680545	1
0	2723	81.823773570201	1
0	2726	81.855157728792	1
0	2752	82.659058952932	1
0	2758	82.958709871201	1
0	2774	83.782874289553	1
0	2780	83.884793017906	1
0	2788	84.092714045478	1
0	2795	84.249796981868	1
0	2805	84.407901517202	1
0	2820	84.864235031358	1
0	2836	85.363779075257	1
0	2842	85.494933401577	1
0	2850	85.71249302484	1
0	2867	86.492825119106	1
0	2873	86.69464568053	1
0	2887	87.077020189893	1
0	2900	87.689992747755	1
0	2906	87.930832104097	1
0	2922	88.615936899713	1
0	2925	88.675825378595	1
0	2930	88.720786962419	1
0	2934	88.878869088713	1
0	2950	89.271174590998	1
0	2965	89.702933537109	1
0	2976	89.952893895638	1
0	2992	91.35935565862	1
0	3003	92.024244134863	1
0	3006	92.047195848117	1
0	3011	92.161256355527	1
0	3013	92.204678297956	1
0	3031	92.625229191967	1
0	3046	93.029402908266	1
0	3052	93.127634274095	1
0	3071	93.665969671763	1
0	3074	93.704175406979	1
0	3076	93.732064331891	1
0	3081	93.809299834749	1
0	3099	94.339861491799	1
0	3117	94.785989914185	1
0	3130	95.249552056338	1
0	3141	95.714420103591	1
0	3150	96.064058566697	1
0	3161	96.379627349787	1
0	3169	96.504248539708	1
0	3174	96.614446529617	1
0	3184	96.79083449056	1
0	3204	98.576968138171	1
0	3210	98.713839133544	1
0	3215	98.818550059033	1
0	3233	99.369199646326	1
0	3244	99.700087188733	1
0	3252	99.819480118099	1
0	3255	99.911543870821	1
0	3264	100.028380792043	1
0	3271	100.193025212778	1
0	3296	101.014381039424	1
0	3307	101.64324238605	1
0	3318	102.400913547353	1
0	3324	102.673378984048	1
0	3340	103.712372285997	1
0	3343	103.811137124023	1
0	3358	104.305511155138	1
0	3371	104.720491256975	1
0	3374	104.747769349192	1
0	3386	105.138056202667	1
0	3389	105.166649736948	1
0	3404	105.517796923322	1
0	3416	105.762108161106	1
0	3427	105.942344580394	1
0	3442	106.524110269721	1
0	3448	106.72283987711	1
0	3463	107.369601554575	1
0	3469	107.525467415348	1
0	3479	107.829348107142	1
0	3495	108.740129572909	1
0	3506	109.675869915776	1
0	3509	109.680856211167	1
0	3511	109.730278136084	1
0	3516	109.843064573605	1
0	3520	109.918211646214	1
0	3553	111.3032909714	1
0	3559	111.424553564594	1
0	3574	112.070912732275	1
0	3577	112.159951746687	1
0	3579	112.165994914432	1
0	3586	112.278274264464	1
0	3588	112.310815615908	1
0	3590	112.348636158362	1
0	3597	112.378277654268	1
0	3603	112.519442057125	1
0	3610	112.612133106929	1
0	3612	112.621200979813	1
0	3618	112.68625538564	1
0	3629	112.917770762463	1
0	3636	113.068100849583	1
0	3668	113.942779820341	1
0	3686	114.410193031635	1
0	3696	114.586896864311	1
0	3699	114.614567823476	1
0	3712	114.908139957171	1
0	3720	115.050509771266	1
0	3732	115.334389700004	1
0	3742	115.483500076632	1
0	3767	116.2961214667	1
0	3776	116.404140248285	1
0	3791	116.802003912012	1
0	3799	116.991073920804	1
0	3814	117.513657882398	1
0	3825	118.915811900295	1
0	3831	119.038585808334	1
0	3844	119.451190286684	1
0	3857	120.165239647237	1
0	3860	120.191528697488	1
0	3862	120.252975876011	1
0	3874	120.539611681624	1
0	3884	120.696877289719	1
0	3887	120.762037348417	1
0	3903	121.163233728937	1
0	3913	121.307048417626	1
0	3920	121.428743326091	1
0	3945	122.312466934819	1
0	3956	122.964287429749	1
0	3959	123.044799562795	1
0	3976	123.636042147415	1
0	3982	123.79218335083	1
0	3985	123.846322856523	1
0	4006	124.915826108034	1
0	4009	124.994526305294	1
0	4011	125.008001198528	1
0	4016	125.024159083097	1
0	4020	125.124903548239	1
0	4041	125.712008815243	1
0	4046	125.806612814725	1
0	4057	125.93091533883	1
0	4067	126.117358571889	1
0	4075	126.267248484059	1
0	4085	126.433155687023	1
0	4090	126.527719146058	1
0	4106	126.950464369854	1
0	4109	126.989916822094	1
0	4116	127.076821429852	1
0	4127	127.259981648447	1
0	4147	127.857075041143	1
0	4152	127.937327934004	1
0	4163	128.203081421921	1
0	4176	128.451533257835	1
0	4191	128.820982581017	1
0	4194	128.888964336695	1
0	4196	128.896683305006	1
0	4207	129.111538834775	1
0	4213	129.155516942748	1
0	4242	130.044356411036	1
0	4250	130.281522126516	1
0	4259	130.421007233443	1
0	4264	130.512086538817	1
0	4285	131.437252989675	1
0	4288	131.498424936643	1
0	4290	131.516097152884	1
0	4295	131.550380934887	1
0	4304	131.789137714461	1
0	4306	131.817626265754	1
0	4321	132.092361640941	1
0	4331	132.317286046927	1
0	4361	133.296395589701	1
0	4364	133.364959792476	1
0	4381	134.142781374676	1
0	4387	134.246739681118	1
0	4395	134.461299930159	1
0	4412	135.239129466968	1
0	4423	135.666622736749	1
0	4426	135.726331318749	1
0	4443	136.844060119602	1
0	4452	137.151023291245	1
0	4463	137.551134171642	1
0	4468	137.582925792703	1
0	4485	138.506372969962	1
0	4491	138.67827425199	1
0	4506	139.516817690024	1
0	4517	139.91762456474	1
0	4523	140.114823755355	1
0	4538	140.643090523344	1
0	4547	140.966640113563	1
0	4555	141.114462322946	1
0	4558	141.173942598317	1
0	4560	141.209535201427	1
0	4571	141.381890405237	1
0	4582	141.621626253542	1
0	4602	142.224879053925	1
0	4618	142.695945048733	1
0	4624	142.954224610078	1
0	4640	144.821393814979	1
0	4643	144.919717454771	1
0	4660	145.461854693236	1
0	4663	145.501157095197	1
0	4670	145.727072357873	1
0	4676	145.806205465054	1
0	4687	145.966045579681	1
0	4690	146.00610244962	1
0	4692	146.025485416565	1
0	4698	146.10537136816	1
0	4705	146.170827273265	1
0	4711	146.315975296745	1
0	4722	146.497422377471	1
0	4724	146.510576136318	1
0	4731	146.639686928055	1
0	4754	147.187053618843	1
0	4757	147.247879472795	1
0	4768	147.403038364918	1
0	4788	148.013782724865	1
0	4800	148.265143734789	1
0	4808	148.395492017634	1
0	4820	148.698782912665	1
0	4823	148.752938107275	1
0	4828	148.795698333929	1
0	4835	148.898800504226	1
0	4838	148.924699205301	1
0	4856	149.335621913469	1
0	4862	149.386691981241	1
0	4890	150.295594080447	1
0	4915	151.581058056503	1
0	4924	151.907171332699	1
0	4927	151.940288355925	1
0	4934	152.056148019496	1
0	4943	152.220943078344	1
0	4953	152.431817407474	1
0	4973	153.055799539925	1
0	4976	153.084315209894	1
0	4985	153.347635067356	1
0	4998	153.647773715864	1
0	5001	153.653080476872	1
0	5014	153.882808849845	1
0	5034	154.541473617863	1
0	5040	154.646103967913	1
0	5045	154.79152838526	1
0	5058	155.047019084661	1
0	5061	155.10209867204	1
0	5072	155.256197108578	1
0	5079	155.379572577957	1
0	5097	155.859558553184	1
0	5107	156.130088668365	1
0	5117	156.261929439721	1
0	5120	156.273472233501	1
0	5126	156.383665144591	1
0	5140	156.692930372097	1
0	5143	156.736047183178	1
0	5156	157.018611599934	1
0	5179	157.678107483257	1
0	5184	157.756047378471	1
0	5191	157.912692139832	1
0	5201	158.079239183875	1
0	5221	158.68019331	1
0	5224	158.744714290866	1
0	5236	159.137753639326	1
0	5239	159.144221822056	1
0	5251	159.416497895762	1
0	5264	159.679561121366	1
0	5281	160.186050899873	1
0	5287	160.362880108304	1
0	5300	160.691197567118	1
0	5313	161.244853230502	1
0	5316	161.292726294684	1
0	5321	161.359315438217	1
0	5332	161.650040391187	1
0	5340	161.824307030503	1
0	5345	161.845745981808	1
0	5359	162.176039583892	1
0	5381	162.864497212654	1
0	5384	162.885731683902	1
0	5396	163.346324190806	1
0	5407	163.478032292761	1
0	5410	163.479196339475	1
0	5421	163.826739707511	1
0	5441	164.640098079875	1
0	5444	164.72443790889	1
0	5449	164.798175899221	1
0	5453	164.933932216553	1
0	5460	165.02626325373	1
0	5473	165.284636235218	1
0	5493	165.924239908031	1
0	5504	166.082242878654	1
0	5519	167.031557410386	1
0	5530	167.659696249736	1
0	5533	167.742433696123	1
0	5550	168.332013254338	1
0	5556	168.534567808897	1
0	5572	169.073256296805	1
0	5583	169.478117893152	1
0	5589	169.644797414343	1
0	5597	169.855756918681	1
0	5602	169.919021380348	1
0	5604	169.929106865062	1
0	5620	170.234656322643	1
0	5625	170.304221951813	1
0	5634	170.471888132603	1
0	5654	171.023645932701	1
0	5664	171.235094717497	1
0	5681	171.796711534051	1
0	5690	172.112560857828	1
0	5703	173.218984281206	1
0	5714	174.062715335689	1
0	5717	174.136549060598	1
0	5732	174.632017478373	1
0	5745	175.641436015408	1
0	5748	175.68088461525	1
0	5755	175.931629843278	1
0	5775	176.645671284931	1
0	5786	177.492116120021	1
0	5795	177.831209552432	1
0	5798	177.862550924134	1
0	5805	177.977996183307	1
0	5826	178.955930408776	1
0	5835	179.348722618477	1
0	5843	179.491784552519	1
0	5851	179.685071041244	1
0	5854	179.721164866587	1
0	5867	179.968163880747	1
0	5870	179.983338715967	1
0	5881	180.237805487818	1
0	5887	180.302920817383	1
0	5893	180.352202574508	1
0	5912	180.92146886906	1
0	5922	181.056285558798	1
0	5932	181.259654337628	1
0	5939	181.431323582428	1
0	5964	182.611566399523	1
0	5967	182.629403866019	1
0	5977	182.952196963712	1
0	5992	183.338112677102	1
0	5997	183.433532182129	1
0	6004	183.552248151111	1
0	6017	183.863318522481	1
0	6027	184.057686281476	1
0	6032	184.140865498696	1
0	6053	185.028152654542	1
0	6062	185.337107583007	1
0	6075	185.94452163223	1
0	6078	185.980011763343	1
0	6083	186.075700095559	1
0	6087	186.206718136298	1
0	6098	186.360101703612	1
0	6108	186.587200680497	1
0	6118	186.841254012169	1
0	6121	186.841661049574	1
0	6126	186.879834493636	1
0	6137	187.112433472059	1
0	6155	187.589595328403	1
0	6163	187.722654261318	1
0	6170	187.840012864411	1
0	6183	188.058836800998	1
0	6186	188.095700269933	1
0	6192	188.167830316319	1
0	6206	188.536309805381	1
0	6231	189.254793894461	1
0	6241	189.471819052694	1
0	6258	190.029629472275	1
0	6261	190.037871789457	1
0	6263	190.122103300495	1
0	6275	190.37030141291	1
0	6297	191.095216732655	1
0	6308	191.528659366026	1
0	6319	192.041871494934	1
0	6322	192.051331904766	1
0	6327	192.190055561907	1
0	6338	192.511577407359	1
0	6348	192.670843223316	1
0	6354	192.757204613136	1
0	6377	194.151909845006	1
0	6383	194.323335458743	1
0	6386	194.36772118358	1
0	6388	194.390192375111	1
0	6392	194.441462135678	1
0	6406	194.66939475633	1
0	6408	194.708581141872	1
0	6436	195.546805320176	1
0	6441	195.57857266293	1
0	6448	195.687646153282	1
0	6464	196.097945889769	1
0	6467	196.117639589632	1
0	6480	196.43959025317	1
0	6500	197.005199719324	1
0	6506	197.204017035654	1
0	6521	198.08863480984	1
0	6527	198.240808343141	1
0	6535	198.44344222277	1
0	6545	198.613003647035	1
0	6562	199.330459625138	1
0	6573	199.938502006517	1
1	2	1.023645695755	1
1	13	1.716291404947	1
1	19	1.954004200535	1
1	22	2.010878873098	1
1	44	3.090967559374	1
1	55	3.671561492565	1
1	64	4.04794769467	1
1	72	4.329689324744	1
1	86	4.688618544298	1
1	94	4.961678494307	1
1	100	5.034716621522	1
1	105	5.080474681701	1
1	128	6.20283556729	1
1	131	6.279112048942	1
1	133	6.28098697275	2
1	147	6.640603198289	1
1	153	6.728103142595	1
1	176	7.428569084729	1
1	182	7.599737277222	1
1	192	7.900425144134	1
1	208	8.353823177207	1
1	211	8.35537492848	1
1	213	8.421451149347	2
1	225	8.67629075593	1
1	245	9.272608248886	1
1	253	9.407196610953	1
1	268	10.636714555671	1
1	274	10.914716844937	1
1	280	10.968398238985	1
1	289	11.117557016163	1
1	299	11.390451326963	1
1	317	11.891761955989	1
1	320	11.894469969879	1
1	329	12.178901420116	1
1	339	12.325508783341	1
1	345	12.418476365327	1
1	349	12.432025805336	1
1	362	12.741800928387	1
1	387	13.683356031649	1
1	398	14.183257105652	1
1	404	14.355145428615	1
1	407	14.360907840633	1
1	428	15.253553275676	1
1	431	15.265731245021	1
1	443	15.728694281047	1
1	459	16.598841881528	1
1	470	17.202464905511	1
1	476	17.379831240579	1
1	479	17.436876429218	1
1	490	17.611545277627	1
1	493	17.634917065966	1
1	495	17.655307436794	2
1	511	17.930752219452	1
1	514	17.988777127193	1
1	520	18.043943948924	1
1	541	18.646656218649	1
1	556	19.043235661364	1
1	574	19.599699348536	1
1	582	19.757198953536	1
1	597	20.534892365844	1
1	603	20.760067308708	1
1	619	21.372841642992	1
1	630	22.20496206433	1
1	641	22.745972110017	1
1	647	22.967224817693	1
1	653	23.057950690631	1
1	658	23.092302481932	1
1	660	23.103226434054	2
1	664	23.154898622937	3
1	668	23.232826362542	3
1	684	23.469197368243	1
1	686	23.540362715873	2
1	697	23.763318726297	1
1	703	23.82311775586	1
1	717	24.127628251493	1
1	724	24.241618437443	1
1	734	24.395614779182	1
1	740	24.478356088981	1
1	753	24.793135726998	1
1	761	24.934313716128	1
1	771	25.086015395448	1
1	783	25.386458873227	1
1	796	25.679841792708	1
1	799	25.755548827778	1
1	817	26.193085746678	1
1	820	26.23789730319	1
1	827	26.29705742	1
1	838	26.55517020022	1
1	848	26.696447785042	1
1	855	26.826456138385	1
1	865	27.035923992163	1
1	875	27.225116783715	1
1	890	27.573263488772	1
1	898	27.706571913617	1
1	903	27.794352019004	1
1	907	27.820401686107	1
1	918	28.063131337942	1
1	924	28.150602066733	1
1	937	28.444795527734	1
1	940	28.459365315474	1
1	964	29.136939112769	1
1	989	29.932184932583	1
1	997	30.067411673936	1
1	1002	30.148223419108	1
1	1015	30.452689893039	1
1	1033	30.952341516286	1
1	1038	31.016094011022	1
1	1042	31.056558843428	1
1	1053	31.263182381062	1
1	1059	31.286800025712	1
1	1061	31.347231302948	2
1	1079	31.694346812362	1
1	1101	32.446062267579	1
1	1121	33.327720589736	1
1	1127	33.497316787589	1
1	1132	33.611112823131	1
1	1152	34.143031996128	1
1	1163	34.769933081276	1
1	1169	34.931688423095	1
1	1182	35.291051454822	1
1	1195	35.996167087625	1
1	1201	36.128357903462	1
1	1206	36.284027950368	1
1	1226	36.988855788373	1
1	1232	37.109525417679	1
1	1237	37.251208627256	1
1	1250	37.505895537405	1
1	1267	38.068546673158	1
1	1278	38.628705630261	1
1	1287	39.025353694823	1
1	1300	39.617368979614	1
1	1309	39.977543573471	1
1	1317	40.249214186989	1
1	1331	40.581367735987	1
1	1334	40.607906173818	1
1	1336	40.632913886999	2
1	1350	40.905758034526	1
1	1353	40.919460606661	1
1	1357	41.003952202064	2
1	1361	41.033963970846	2
1	1379	41.429659509036	1
1	1385	41.503211190898	1
1	1406	42.178355015375	1
1	1423	42.67190026325	1
1	1434	42.888817672687	1
1	1437	42.920552663183	1
1	1452	43.198124491454	1
1	1455	43.218047012657	1
1	1457	43.238231394903	2
1	1487	44.102688336438	1
1	1493	44.335695717887	1
1	1496	44.389029106144	1
1	1501	44.43052743742	2
1	1515	44.699380975664	1
1	1527	44.985394109411	1
1	1547	45.886249333956	1
1	1553	46.021851464566	1
1	1558	46.158927779804	1
1	1576	46.596920437222	1
1	1579	46.603477178191	1
1	1581	46.618402620038	2
1	1590	46.839015169838	1
1	1592	46.873914012885	2
1	1599	46.983937082416	2
1	1617	47.329563042594	1
1	1634	47.866758459719	1
1	1644	48.08362624318	1
1	1664	48.878710386484	1
1	1670	49.133048744802	1
1	1673	49.174460463182	1
1	1693	49.731267288676	1
1	1706	50.264864767356	1
1	1712	50.465540273782	1
1	1728	50.929131727358	1
1	1739	51.427579211762	1
1	1748	51.778589893782	1
1	1756	51.992744059485	1
1	1770	52.308069028895	1
1	1783	53.09211210881	1
1	1794	53.922889496079	1
1	1803	54.252708267775	1
1	1808	54.333524075402	1
1	1813	54.381830740196	1
1	1822	54.578852140021	1
1	1829	54.71488019785	1
1	1854	55.501752887563	1
1	1865	56.104224039868	1
1	1868	56.162812517704	1
1	1873	56.292179058716	1
1	1877	56.342005440818	1
1	1884	56.404861135141	1
1	1912	57.434478408183	1
1	1918	57.626429332756	1
1	1926	57.74239980895	1
1	1933	57.892059622452	1
1	1953	58.542993180275	1
1	1959	58.832424777985	1
1	1970	59.068910753767	1
1	1981	59.241128940033	1
1	1989	59.380266794676	1
1	1994	59.470972403346	1
1	1998	59.515148793396	1
1	2007	59.674698314473	1
1	2011	59.710505835518	1
1	2020	59.873424769539	1
1	2024	59.895933417085	1
1	2048	60.594063949398	1
1	2051	60.658482322332	1
1	2079	61.826387695608	1
1	2082	61.827266961517	1
1	2089	62.120372987605	1
1	2109	62.748539462135	1
1	2112	62.774594044841	1
1	2129	63.604621397629	1
1	2138	64.00077194105	1
1	2146	64.210309161176	1
1	2160	64.550909535556	1
1	2173	64.963806582545	1
1	2184	65.488456010343	1
1	2190	65.689385472772	1
1	2199	65.817446342031	1
1	2202	65.818624923235	1
1	2204	65.836830339385	2
1	2215	66.022983070539	1
1	2228	66.306870315231	1
1	2231	66.354028722261	1
1	2236	66.393750485954	2
1	2242	66.504545945282	2
1	2260	66.93209333935	1
1	2275	67.351861122423	1
1	2293	67.826441968898	1
1	2308	68.248831485962	1
1	2316	68.406423873827	1
1	2331	69.154953913269	1
1	2342	70.0185921529	1
1	2353	70.823697587265	1
1	2356	70.88096577194	1
1	2358	70.909305701112	2
1	2382	71.766545076903	1
1	2385	71.83173255546	1
1	2392	72.019653825883	1
1	2405	72.2669508915	1
1	2420	72.698851392687	1
1	2423	72.701995815841	1
1	2437	73.121287597491	1
1	2443	73.199656860594	1
1	2462	74.391984797667	1
1	2465	74.403252232204	1
1	2482	75.489932628514	1
1	2485	75.51637957429	1
1	2487	75.528654649488	2
1	2499	75.854336018263	1
1	2502	75.859166075646	1
1	2515	76.121958077789	1
1	2525	76.35707028276	1
1	2540	76.746404842379	1
1	2543	76.756744271141	1
1	2567	77.460945655309	1
1	2578	77.782377285447	1
1	2581	77.787434979062	1
1	2590	78.01708750947	1
1	2610	78.69809922698	1
1	2619	79.027585487752	1
1	2627	79.237879410175	1
1	2636	79.412544054045	1
1	2648	79.698756981269	1
1	2654	79.794187596909	1
1	2659	79.837607126244	1
1	2682	80.73434701722	1
1	2688	80.925926570284	1
1	2701	81.316809853355	1
1	2712	81.61881359917	1
1	2715	81.62071680545	1
1	2724	81.823773570201	1
1	2727	81.855157728792	1
1	2753	82.659058952932	1
1	2759	82.958709871201	1
1	2775	83.782874289553	1
1	2781	83.884793017906	1
1	2789	84.092714045478	1
1	2796	84.249796981868	1
1	2806	84.407901517202	1
1	2821	84.864235031358	1
1	2837	85.363779075257	1
1	2843	85.494933401577	1
1	2851	85.71249302484	1
1	2868	86.492825119106	1
1	2874	86.69464568053	1
1	2888	87.077020189893	1
1	2901	87.689992747755	1
1	2907	87.930832104097	1
1	2923	88.615936899713	1
1	2926	88.675825378595	1
1	2931	88.720786962419	1
1	2935	88.878869088713	1
1	2951	89.271174590998	1
1	2966	89.702933537109	1
1	2977	89.952893895638	1
1	2993	91.35935565862	1
1	3004	92.024244134863	1
1	3007	92.047195848117	1
1	3012	92.161256355527	1
1	3014	92.204678297956	2
1	3032	92.625229191967	1
1	3047	93.029402908266	1
1	3053	93.127634274095	1
1	3072	93.665969671763	1
1	3075	93.704175406979	1
1	3077	93.732064331891	2
1	3082	93.809299834749	2
1	3100	94.339861491799	1
1	3118	94.785989914185	1
1	3131	95.249552056338	1
1	3142	95.714420103591	1
1	3151	96.064058566697	1
1	3162	96.379627349787	1
1	3170	96.504248539708	1
1	3175	96.614446529617	1
1	3185	96.79083449056	1
1	3205	98.576968138171	1
1	3211	98.713839133544	1
1	3216	98.818550059033	1
1	3234	99.369199646326	1
1	3245	99.700087188733	1
1	3253	99.819480118099	1
1	3256	99.911543870821	1
1	3265	100.028380792043	1
1	3272	100.193025212778	1
1	3297	101.014381039424	1
1	3308	101.64324238605	1
1	3319	102.400913547353	1
1	3325	102.673378984048	1
1	3341	103.712372285997	1
1	3344	103.811137124023	1
1	3359	104.305511155138	1
1	3372	104.720491256975	1
1	3375	104.747769349192	1
1	3387	105.138056202667	1
1	3390	105.166649736948	1
1	3405	105.517796923322	1
1	3417	105.762108161106	1
1	3428	105.942344580394	1
1	3443	106.524110269721	1
1	3449	106.72283987711	1
1	3464	107.369601554575	1
1	3470	107.525467415348	1
1	3480	107.829348107142	1
1	3496	108.740129572909	1
1	3507	109.675869915776	1
1	3510	109.680856211167	1
1	3512	109.730278136084	2
1	3517	109.843064573605	2
1	3521	109.918211646214	2
1	3554	111.3032909714	1
1	3560	111.424553564594	1
1	3575	112.070912732275	1
1	3578	112.159951746687	1
1	3580	112.165994914432	2
1	3587	112.278274264464	1
1	3589	112.310815615908	2
1	3591	112.348636158362	3
1	3598	112.378277654268	3
1	3604	112.519442057125	3
1	3611	112.612133106929	3
1	3613	112.621200979813	4
1	3619	112.68625538564	4
1	3630	112.917770762463	3
1	3637	113.068100849583	3
1	3669	113.942779820341	1
1	3687	114.410193031635	1
1	3697	114.586896864311	1
1	3700	114.614567823476	1
1	3713	114.908139957171	1
1	3721	115.050509771266	1
1	3733	115.334389700004	1
1	3743	115.483500076632	1
1	3768	116.2961214667	1
1	3777	116.404140248285	1
1	3792	116.802003912012	1
1	3800	116.991073920804	1
1	3815	117.513657882398	1
1	3826	118.915811900295	1
1	3832	119.038585808334	1
1	3845	119.451190286684	1
1	3858	120.165239647237	1
1	3861	120.191528697488	1
1	3863	120.252975876011	2
1	3875	120.539611681624	1
1	3885	120.696877289719	1
1	3888	120.762037348417	1
1	3904	121.163233728937	1
1	3914	121.307048417626	1
1	3921	121.428743326091	1
1	3946	122.312466934819	1
1	3957	122.964287429749	1
1	3960	123.044799562795	1
1	3977	123.636042147415	1
1	3983	123.79218335083	1
1	3986	123.846322856523	1
1	4007	124.915826108034	1
1	4010	124.994526305294	1
1	4012	125.008001198528	2
1	4017	125.024159083097	2
1	4021	125.124903548239	2
1	4042	125.712008815243	1
1	4047	125.806612814725	1
1	4058	125.93091533883	1
1	4068	126.117358571889	1
1	4076	126.267248484059	1
1	4086	126.433155687023	1
1	4091	126.527719146058	1
1	4107	126.950464369854	1
1	4110	126.989916822094	1
1	4117	127.076821429852	1
1	4128	127.259981648447	1
1	4148	127.857075041143	1
1	4153	127.937327934004	1
1	4164	128.203081421921	1
1	4177	128.451533257835	1
1	4192	128.820982581017	1
1	4195	128.888964336695	1
1	4197	128.896683305006	2
1	4208	129.111538834775	1
1	4214	129.155516942748	1
1	4243	130.044356411036	1
1	4251	130.281522126516	1
1	4260	130.421007233443	1
1	4265	130.512086538817	1
1	4286	131.437252989675	1
1	4289	131.498424936643	1
1	4291	131.516097152884	2
1	4296	131.550380934887	2
1	4305	131.789137714461	1
1	4307	131.817626265754	2
1	4322	132.092361640941	1
1	4332	132.317286046927	1
1	4362	133.296395589701	1
1	4365	133.364959792476	1
1	4382	134.142781374676	1
1	4388	134.246739681118	1
1	4396	134.461299930159	1
1	4413	135.239129466968	1
1	4424	135.666622736749	1
1	4427	135.726331318749	1
1	4444	136.844060119602	1
1	4453	137.151023291245	1
1	4464	137.551134171642	1
1	4469	137.582925792703	1
1	4486	138.506372969962	1
1	4492	138.67827425199	1
1	4507	139.516817690024	1
1	4518	139.91762456474	1
1	4524	140.114823755355	1
1	4539	140.643090523344	1
1	4548	140.966640113563	1
1	4556	141.114462322946	1
1	4559	141.173942598317	1
1	4561	141.209535201427	2
1	4572	141.381890405237	1
1	4583	141.621626253542	1
1	4603	142.224879053925	1
1	4619	142.695945048733	1
1	4625	142.954224610078	1
1	4641	144.821393814979	1
1	4644	144.919717454771	1
1	4661	145.461854693236	1
1	4664	145.501157095197	1
1	4671	145.727072357873	1
1	4677	145.806205465054	1
1	4688	145.966045579681	1
1	4691	146.00610244962	1
1	4693	146.025485416565	2
1	4699	146.10537136816	2
1	4706	146.170827273265	2
1	4712	146.315975296745	2
1	4723	146.497422377471	1
1	4725	146.510576136318	2
1	4732	146.639686928055	2
1	4755	147.187053618843	1
1	4758	147.247879472795	1
1	4769	147.403038364918	1
1	4789	148.013782724865	1
1	4801	148.265143734789	1
1	4809	148.395492017634	1
1	4821	148.698782912665	1
1	4824	148.752938107275	1
1	4829	148.795698333929	2
1	4836	148.898800504226	1
1	4839	148.924699205301	2
1	4857	149.335621913469	1
1	4863	149.386691981241	1
1	4891	150.295594080447	1
1	4916	151.581058056503	1
1	4925	151.907171332699	1