version 3
run BaseVersion-1-20240511-20:48:36-11938
attr configname BaseVersion
attr datetime 20240511-20:48:36
attr datetimef 20240511-204836
attr experiment BaseVersion
attr inifile omnetpp.ini
attr iterationvars $genInterval=0.15
attr iterationvarsd genInterval=0.15
attr iterationvarsf genInterval=0.15-
attr measurement $genInterval=0.15
attr network Network
attr processid 11938
attr repetition 0
attr replication #0
attr resultdir results
attr runnumber 1
attr seedset 1
itervar genInterval 0.15
config network Network
config sim-time-limit 200s
config Network.nodeTx.gen.generationInterval exponential(0.15)
config Network.nodeTx.gen.packetByteSize 12500
config Network.nodeTx.queue.bufferSize 200
config Network.nodeRx.queue.bufferSize 200
config Network.queue.bufferSize 200

vector 0 Network.nodeTx.gen packetGen ETV
vector 1 Network.nodeTx.queue bufferSize ETV
vector 2 Network.queue bufferSize ETV
vector 3 Network.nodeRx.queue bufferSize ETV
vector 4 Network.nodeRx.sink Delay ETV
vector 5 Network.nodeRx.sink packetUsed ETV
vector 6 Network.queue packetDrop ETV
0	1	0.080940873977	1
0	12	0.961849603124	1
0	18	1.152968388848	1
0	31	1.55744006454	1
0	34	1.557457222683	1
0	38	1.578023509772	1
0	40	1.63202542195	1
0	71	2.67439256505	1
0	74	2.698199004634	1
0	76	2.738594598285	1
0	78	2.75312717916	1
0	83	2.828898630761	1
0	85	2.859815825856	1
0	89	2.933447399524	1
0	96	2.997043871345	1
0	102	3.163227873222	1
0	109	3.239045753093	1
0	129	3.650300155444	1
0	135	3.766394120985	1
0	149	4.047317671016	1
0	154	4.12881857781	1
0	161	4.185191456709	1
0	169	4.3585734133	1
0	177	4.470096866902	1
0	182	4.504405527891	1
0	189	4.592306047568	1
0	202	4.90801064201	1
0	205	4.947133019501	1
0	207	4.951298463644	1
0	214	5.065967201512	1
0	225	5.232479249295	1
0	241	5.600424221328	1
0	246	5.681437878796	1
0	250	5.773091360447	1
0	259	5.895792457154	1
0	266	5.980294241855	1
0	270	6.002985179506	1
0	286	6.422831971199	1
0	289	6.455947953732	1
0	302	6.681972866081	1
0	312	6.92394801977	1
0	322	7.112749601446	1
0	340	7.630283664539	1
0	350	7.873781868416	1
0	355	7.930187661778	1
0	357	7.944796647647	1
0	368	8.121602173029	1
0	375	8.231121328799	1
0	388	8.544713867243	1
0	401	8.845108438804	1
0	416	9.182616819186	1
0	426	9.447659501975	1
0	429	9.460991431264	1
0	442	9.726435392857	1
0	445	9.73241107473	1
0	450	9.780245707002	1
0	452	9.808164500346	1
0	454	9.81732509307	1
0	471	10.133060540765	1
0	480	10.299600145405	1
0	482	10.315128948228	1
0	491	10.44999441044	1
0	497	10.531990214253	1
0	506	10.699043358418	1
0	522	11.174162196786	1
0	528	11.253762343695	1
0	534	11.368029347078	1
0	541	11.401042373785	1
0	552	11.577630862423	1
0	555	11.628926184894	1
0	561	11.685789606055	1
0	563	11.708783286709	1
0	574	11.882777116957	1
0	585	12.11217334076	1
0	598	12.38210490011	1
0	601	12.461896673278	1
0	603	12.464665309978	1
0	605	12.469880629987	1
0	618	12.677911396591	1
0	627	12.82464827883	1
0	650	13.499244879083	1
0	658	13.661347057585	1
0	668	13.868194621756	1
0	673	13.921373773362	1
0	677	13.970741910321	1
0	682	14.059366920727	1
0	697	14.292950201471	1
0	700	14.330628529801	1
0	702	14.346971241765	1
0	704	14.358400438224	1
0	711	14.447502592372	1
0	717	14.542518976055	1
0	737	14.901388068534	1
0	740	14.916555541838	1
0	742	14.968694589565	1
0	760	15.319224759553	1
0	763	15.37012904274	1
0	768	15.389217222538	1
0	770	15.410111458433	1
0	778	15.521714190317	1
0	780	15.524647733575	1
0	782	15.537746848483	1
0	791	15.708117136652	1
0	811	16.08120394586	1
0	813	16.11687174989	1
0	831	16.478812758608	1
0	834	16.525107079859	1
0	839	16.57837923452	1
0	847	16.679844326801	1
0	854	16.811545204347	1
0	856	16.819771068406	1
0	862	16.944947278337	1
0	869	17.072986084785	1
0	880	17.215749803568	1
0	882	17.239551440322	1
0	902	17.709923603257	1
0	910	17.843409464357	1
0	915	17.888773801828	1
0	924	18.069248951888	1
0	929	18.108651606425	1
0	931	18.124845260978	1
0	938	18.23920328892	1
0	944	18.319382943928	1
0	962	18.768557300465	1
0	972	18.946379111277	1
0	980	19.048283384831	1
0	985	19.128494602514	1
0	992	19.245169866839	1
0	996	19.252856512571	1
0	1007	19.470391940227	1
0	1017	19.58553906438	1
0	1020	19.592499967347	1
0	1026	19.756004938575	1
0	1031	19.778622462892	1
0	1039	19.887129128385	1
0	1050	20.122953033705	1
0	1065	20.556915195544	1
0	1068	20.561453362301	1
0	1077	20.693937994019	1
0	1091	21.015936143052	1
0	1103	21.36651559407	1
0	1113	21.483252151944	1
0	1116	21.505435771985	1
0	1123	21.594561471918	1
0	1125	21.617058739278	1
0	1140	21.951091172173	1
0	1153	22.198155356211	1
0	1156	22.269277429323	1
0	1162	22.345321602866	1
0	1169	22.461288112349	1
0	1173	22.488400286612	1
0	1182	22.646862088648	1
0	1198	23.040505146168	1
0	1203	23.107744055485	1
0	1207	23.171846805968	1
0	1216	23.298794553751	1
0	1227	23.507226762595	1
0	1235	23.659575680502	1
0	1245	23.853768654627	1
0	1248	23.874023941189	1
0	1264	24.196254081934	1
0	1271	24.372030556822	1
0	1281	24.518624765321	1
0	1291	24.675136627266	1
0	1301	24.883647312272	1
0	1304	24.949176536445	1
0	1311	25.013539959509	1
0	1322	25.229641807331	1
0	1327	25.276833603439	1
0	1331	25.342965984626	1
0	1347	25.682306618882	1
0	1357	25.891933183016	1
0	1363	25.9757495416	1
0	1376	26.295475806364	1
0	1394	26.797652947003	1
0	1397	26.799413619061	1
0	1403	26.962761112788	1
0	1410	27.066166980687	1
0	1421	27.211975445689	1
0	1424	27.223473914602	1
0	1426	27.241756009924	1
0	1437	27.473691307507	1
0	1455	27.921526700897	1
0	1458	27.931458461236	1
0	1463	28.02111004958	1
0	1469	28.086957988774	1
0	1476	28.216509033515	1
0	1494	28.643184778701	1
0	1499	28.721856742528	1
0	1506	28.793514529119	1
0	1508	28.834094419635	1
0	1521	29.049998108449	1
0	1536	29.40054278572	1
0	1546	29.622038019202	1
0	1553	29.749922595258	1
0	1559	29.803715656351	1
0	1561	29.804146824158	1
0	1572	30.026395340108	1
0	1580	30.170410150104	1
0	1586	30.195305910131	1
0	1588	30.254628278259	1
0	1599	30.384266273673	1
0	1605	30.496583685202	1
0	1607	30.497941007119	1
0	1623	30.823598360514	1
0	1633	31.008785082628	1
0	1638	31.075089609166	1
0	1642	31.170502819687	1
0	1658	31.529272892262	1
0	1668	31.746238520775	1
0	1678	31.892708385594	1
0	1684	31.987204016373	1
0	1686	31.989596176266	1
0	1690	32.036597664545	1
0	1708	32.434285565287	1
0	1720	32.701580037329	1
0	1730	32.877692106777	1
0	1738	32.997910558879	1
0	1765	33.886361018709	1
0	1768	33.897259767524	1
0	1770	33.925632785612	1
0	1777	34.021566650593	1
0	1779	34.043691335636	1
0	1790	34.247356017063	1
0	1808	34.651912463535	1
0	1813	34.683883292631	1
0	1822	34.86289667218	1
0	1827	34.956527040823	1
0	1831	34.966768894811	1
0	1836	35.006044302218	1
0	1847	35.217302631859	1
0	1853	35.323769603986	1
0	1864	35.534057692479	1
0	1867	35.569144448332	1
0	1883	35.95378474121	1
0	1886	35.96136891964	1
0	1895	36.147840820997	1
0	1904	36.257580954313	1
0	1909	36.277485737354	1
0	1911	36.305847491509	1
0	1913	36.308859551594	1
0	1920	36.384564537309	1
0	1922	36.388548630031	1
0	1924	36.405585309283	1
0	1926	36.409892535622	1
0	1932	36.51683695194	1
0	1936	36.559233384491	1
0	1941	36.575393756728	1
0	1954	36.870340635127	1
0	1958	36.921443545336	1
0	1965	37.037542173159	1
0	1971	37.077089837339	1
0	1978	37.197809611397	1
0	2002	37.712563940468	1
0	2018	37.989367309323	1
0	2021	38.038293086513	1
0	2023	38.058181145243	1
0	2029	38.09809321228	1
0	2031	38.147198852132	1
0	2033	38.161602229807	1
0	2044	38.293798429158	1
0	2051	38.420417194243	1
0	2073	38.944393104545	1
0	2079	39.025566896992	1
0	2087	39.149065602897	1
0	2093	39.217858284658	1
0	2095	39.220681786081	1
0	2108	39.472174752009	1
0	2120	39.714065695789	1
0	2123	39.765388546833	1
0	2128	39.805173787279	1
0	2139	39.994727751116	1
0	2150	40.2415692918	1
0	2160	40.383948761005	1
0	2163	40.457568058859	1
0	2169	40.541074888687	1
0	2183	40.839835487352	1
0	2193	41.048907653876	1
0	2203	41.255134658067	1
0	2208	41.338877975127	1
0	2217	41.460748765831	1
0	2222	41.544641524721	1
0	2226	41.566647954568	1
0	2231	41.634038040751	1
0	2233	41.643306218089	1
0	2237	41.668274361757	1
0	2241	41.687678539805	1
0	2261	42.102825465557	1
0	2263	42.109661686675	1
0	2281	42.481936166574	1
0	2284	42.498994493692	1
0	2295	42.727454948112	1
0	2298	42.76582613978	1
0	2307	42.909521597096	1
0	2318	43.096756799358	1
0	2321	43.102256309208	1
0	2328	43.225306938698	1
0	2337	43.384644843409	1
0	2339	43.386540164574	1
0	2343	43.407389758002	1
0	2345	43.41859413316	1
0	2347	43.470891533879	1
0	2374	43.983840023689	1
0	2377	44.050974168905	1
0	2386	44.176908509443	1
0	2390	44.225072654444	1
0	2392	44.259162944295	1
0	2394	44.270690079095	1
0	2400	44.31430826201	1
0	2402	44.339063721761	1
0	2413	44.543348394884	1
0	2415	44.569790704902	1
0	2422	44.602407703853	1
0	2442	45.021232646626	1
0	2448	45.151843850647	1
0	2455	45.221419387919	1
0	2473	45.747503052901	1
0	2476	45.755199902529	1
0	2490	46.036629756338	1
0	2500	46.23924310207	1
0	2505	46.280378585245	1
0	2507	46.333597287993	1
0	2514	46.435711828143	1
0	2518	46.470002743011	1
0	2527	46.615122865863	1
0	2550	47.215715939953	1
0	2562	47.480612942524	1
0	2575	47.815881648215	1
0	2578	47.841462782551	1
0	2589	48.055123786591	1
0	2592	48.057936422043	1
0	2601	48.215890753438	1
0	2603	48.226779929151	1
0	2605	48.232853783656	1
0	2611	48.332784331524	1
0	2627	48.584985947228	1
0	2633	48.724822083881	1
0	2644	48.940506431519	1
0	2652	49.066701814926	1
0	2657	49.157825001759	1
0	2664	49.215093677015	1
0	2670	49.3289311086	1
0	2694	50.000265125887	1
0	2697	50.017633340672	1
0	2703	50.147667461895	1
0	2705	50.171346826006	1
0	2712	50.243086355476	1
0	2718	50.349718501902	1
0	2725	50.469811062624	1
0	2731	50.506246104734	1
0	2742	50.711416717802	1
0	2758	51.08375191619	1
0	2766	51.249703029634	1
0	2771	51.34273006621	1
0	2778	51.388896367402	1
0	2780	51.41017709718	1
0	2782	51.420472706921	1
0	2793	51.637214873955	1
0	2799	51.706540242199	1
0	2801	51.742418548346	1
0	2812	51.891441909489	1
0	2814	51.903015934961	1
0	2816	51.938407328926	1
0	2820	51.953449883337	1
0	2831	52.163056551751	1
0	2836	52.189603919059	1
0	2838	52.199931928773	1
0	2842	52.266048451048	1
0	2846	52.311278100607	1
0	2848	52.32630217808	1
0	2861	52.571326859064	1
0	2866	52.594520504052	1
0	2868	52.626765988726	1
0	2888	53.027841412921	1
0	2899	53.18086463546	1
0	2905	53.309774732382	1
0	2912	53.421336726032	1
0	2927	53.695891699467	1
0	2943	54.084048200833	1
0	2951	54.230490985577	1
0	2956	54.276326507644	1
0	2960	54.335175712021	1
0	2962	54.345411289134	1
0	2973	54.540710690432	1
0	2984	54.739951852094	1
0	2992	54.850904870779	1
0	3002	55.072783488645	1
0	3012	55.273016183196	1
0	3027	55.630611257823	1
0	3030	55.657732763083	1
0	3046	56.060908295638	1
0	3056	56.235169050252	1
0	3059	56.237276521518	1
0	3063	56.320757446718	1
0	3067	56.360814334492	1
0	3078	56.556415019659	1
0	3087	56.700286281955	1
0	3098	56.912080664383	1
0	3113	57.358518122586	1
0	3119	57.434545970991	1
0	3137	57.88443510137	1
0	3150	58.273375926994	1
0	3160	58.395386369154	1
0	3163	58.429517534685	1
0	3179	58.800357012086	1
0	3182	58.801562247735	1
0	3188	58.955463944683	1
0	3204	59.346730063464	1
0	3210	59.420876409617	1
0	3214	59.473206140776	1
0	3220	59.57303322008	1
0	3225	59.600432749027	1
0	3231	59.739501564973	1
0	3233	59.743161088298	1
0	3242	59.86278662481	1
0	3248	59.953009063373	1
0	3266	60.343930800168	1
0	3279	60.591734663769	1
0	3291	60.968237755274	1
0	3297	61.037157107844	1
0	3303	61.112505294646	1
0	3310	61.253441880776	1
0	3328	61.749035607643	1
0	3331	61.754356016351	1
0	3336	61.783022041358	1
0	3338	61.848699500168	1
0	3342	61.86895730019	1
0	3346	61.8812234261	1
0	3348	61.902991018913	1
0	3359	62.080217663608	1
0	3366	62.185898082908	1
0	3368	62.18781720746	1
0	3370	62.191081184315	1
0	3376	62.283382847487	1
0	3396	62.726773675788	1
0	3419	63.214627931142	1
0	3431	63.477897634999	1
0	3434	63.538909198404	1
0	3436	63.541179134426	1
0	3443	63.637001686049	1
0	3445	63.666075129676	1
0	3451	63.682780450782	1
0	3453	63.743314792588	1
0	3460	63.848212492673	1
0	3462	63.869273770973	1
0	3482	64.194599771896	1
0	3493	64.443307904585	1
0	3499	64.557964860838	1
0	3506	64.621372571394	1
0	3508	64.670956156894	1
0	3528	65.093236722082	1
0	3531	65.158915912947	1
0	3540	65.289762078276	1
0	3554	65.62967148562	1
0	3566	65.946258062734	1
0	3572	65.987717786398	1
0	3583	66.267110542098	1
0	3586	66.270736633453	1
0	3602	66.624439114079	1
0	3619	67.130447871308	1
0	3625	67.222842535717	1
0	3631	67.307151925401	1
0	3638	67.425715268193	1
0	3644	67.489478644238	1
0	3655	67.729850661546	1
0	3663	67.858932111761	1
0	3668	67.909403906657	1
0	3670	67.929695471117	1
0	3677	68.030771738027	1
0	3697	68.480261556813	1
0	3705	68.617371902711	1
0	3708	68.673818479122	1
0	3712	68.676166755994	1
0	3730	69.134269908935	1
0	3738	69.269288750718	1
0	3743	69.306249279164	1
0	3750	69.391537711795	1
0	3752	69.434430287643	1
0	3767	69.681470513793	1
0	3780	69.980517128404	1
0	3783	70.037321211297	1
0	3787	70.07755575038	1
0	3803	70.412638776482	1
0	3813	70.665829844041	1
0	3823	70.795191595052	1
0	3830	70.912947165639	1
0	3833	70.943450180232	1
0	3838	70.975291900025	1
0	3849	71.207917188811	1
0	3857	71.341233092364	1
0	3867	71.483257638215	1
0	3870	71.49065773029	1
0	3872	71.498970251822	1
0	3874	71.501370297521	1
0	3879	71.583129472003	1
0	3883	71.590777843901	1
0	3889	71.761257137698	1
0	3896	71.837734875288	1
0	3916	72.213995152822	1
0	3922	72.343018566333	1
0	3924	72.343078881921	1
0	3940	72.646274538387	1
0	3960	73.210551064757	1
0	3970	73.441931714958	1
0	3975	73.512812015689	1
0	3979	73.556907837186	1
0	4000	74.103113025442	1
0	4003	74.11598836616	1
0	4010	74.255211022147	1
0	4014	74.280963849568	1
0	4027	74.545742414216	1
0	4033	74.58100450669	1
0	4039	74.709252636995	1
0	4046	74.790286372131	1
0	4052	74.938646315693	1
0	4059	75.002731624976	1
0	4063	75.053173481476	1
0	4072	75.233711428464	1
0	4080	75.366297062423	1
0	4090	75.545652871372	1
0	4100	75.753610084555	1
0	4103	75.765259548323	1
0	4117	76.058380667456	1
0	4120	76.063953369356	1
0	4133	76.274978254074	1
0	4143	76.508647342957	1
0	4153	76.688275019805	1
0	4166	77.034457707064	1
0	4178	77.334252487004	1
0	4181	77.33495362	1
0	4186	77.393395558242	1
0	4190	77.439415772282	1
0	4199	77.606074136528	1
0	4205	77.70056543569	1
0	4212	77.790479521248	1
0	4216	77.857379513307	1
0	4220	77.929594478101	1
0	4224	77.970802964913	1
0	4231	78.050154294377	1
0	4233	78.053670496026	1
0	4237	78.13066469281	1
0	4246	78.244451401869	1
0	4250	78.30172481156	1
0	4252	78.32264769749	1
0	4261	78.46854486683	1
0	4270	78.592190148376	1
0	4276	78.676573073057	1
0	4278	78.704130996854	1
0	4305	79.250442293452	1
0	4309	79.332429581923	1
0	4320	79.502317416767	1
0	4331	79.675446271145	1
0	4334	79.708649897278	1
0	4336	79.756660094295	1
0	4343	79.840112279895	1
0	4345	79.841619788965	1
0	4351	79.904709548998	1
0	4353	79.9419530432	1
0	4369	80.181608207307	1
0	4371	80.186479901988	1
0	4386	80.504517291125	1
0	4402	80.914227853634	1
0	4415	81.265492167788	1
0	4427	81.494044529879	1
0	4435	81.657070722477	1
0	4442	81.766416097899	1
0	4448	81.813665509943	1
0	4450	81.81615547719	1
0	4452	81.859781877118	1
0	4458	81.91302624392	1
0	4474	82.202573937115	1
0	4480	82.319288071498	1
0	4487	82.431813858065	1
0	4500	82.726606091308	1
0	4510	82.969651411569	1
0	4516	83.000357525207	1
0	4522	83.127823646048	1
0	4524	83.140910213388	1
0	4535	83.339066301719	1
0	4537	83.345858637165	1
0	4544	83.45564546499	1
0	4550	83.543641718578	1
0	4561	83.764670690653	1
0	4563	83.767596860251	1
0	4574	83.893794525386	1
0	4576	83.904202190058	1
0	4583	83.998224632631	1
0	4594	84.248739437816	1
0	4600	84.311679118153	1
0	4607	84.463389136023	1
0	4611	84.473986202202	1
0	4624	84.696308189703	1
0	4627	84.767512183376	1
0	4638	84.95097642572	1
0	4641	84.963422714589	1
0	4646	85.004235547555	1
0	4669	85.613811779344	1
0	4672	85.620626975237	1
0	4674	85.650689941253	1
0	4678	85.700219284839	1
0	4691	85.950803579775	1
0	4705	86.25127528382	1
0	4717	86.563145503805	1
0	4721	86.574535715444	1
0	4729	86.749447337701	1
0	4740	86.91141528335	1
0	4748	87.037834529365	1
0	4751	87.068958019667	1
0	4755	87.095284598787	1
0	4762	87.206096234946	1
0	4768	87.300447552076	1
0	4784	87.651770081767	1
0	4789	87.715277494195	1
0	4796	87.811974692277	1
0	4798	87.850216262875	1
0	4813	88.131835713848	1
0	4821	88.266497232856	1
0	4833	88.540244490793	1
0	4839	88.596398299412	1
0	4841	88.618896212619	1
0	4859	88.990983607583	1
0	4866	89.107562272469	1
0	4879	89.468147884014	1
0	4884	89.56255697405	1
0	4891	89.607139743542	1
0	4893	89.644155873224	1
0	4895	89.661786240508	1
0	4901	89.748981051004	1
0	4908	89.78113886588	1
0	4914	89.879308102561	1
0	4921	89.983155482648	1
0	4923	90.043964217987	1
0	4934	90.239580528792	1
0	4936	90.240923424115	1
0	4942	90.275939337292	1
0	4949	90.38155961576	1
0	4951	90.42431915315	1
0	4962	90.592055993788	1
0	4977	90.878305256842	1
0	4979	90.886863735461	1
0	4981	90.96750302944	1
0	4988	90.993224449766	1
0	4994	91.13705920277	1
0	5005	91.27642883861	1
0	5007	91.316349441523	1
0	5011	91.374027688954	1
0	5016	91.390160001643	1
0	5031	91.72195806278	1
0	5038	91.830764310561	1
0	5049	92.065128511685	1
0	5055	92.162395024965	1
0	5062	92.199184078715	1
0	5064	92.224034128168	1
0	5066	92.257544852596	1
0	5077	92.403397140994	1
0	5086	92.574518706777	1
0	5094	92.692311406174	1
0	5096	92.71779036542	1
0	5107	92.877047396483	1
0	5114	92.984160428446	1
0	5116	93.007578791144	1
0	5141	93.671816743227	1
0	5153	93.880680401809	1
0	5156	93.904124431585	1
0	5158	93.94178821929	1
0	5160	93.949214034169	1
0	5167	94.059106990893	1
0	5187	94.403097284497	1
0	5197	94.633871547076	1
0	5207	94.822335026771	1
0	5210	94.825722555569	1
0	5214	94.881453393882	1
0	5218	94.940268173937	1
0	5223	95.015137386926	1
0	5240	95.324580965806	1
0	5243	95.337216043617	1
0	5257	95.616584807686	1
0	5262	95.681692579069	1
0	5269	95.797664255125	1
0	5271	95.797816324166	1
0	5286	96.099986096665	1
0	5294	96.246962749422	1
0	5311	96.695741688412	1
0	5314	96.72926411832	1
0	5328	96.991920382672	1
0	5335	97.139089413136	1
0	5348	97.427830366214	1
0	5353	97.48600033778	1
0	5355	97.501595128344	1
0	5357	97.508866281516	1
0	5366	97.666899644248	1
0	5377	97.859657959345	1
0	5388	98.042022763217	1
0	5398	98.255623444093	1
0	5408	98.39695737545	1
0	5413	98.475165632769	1
0	5424	98.716293043728	1
0	5434	98.899072291202	1
0	5437	98.90434973319	1
0	5444	99.036401139314	1
0	5455	99.257008308632	1
0	5475	99.780830180375	1
0	5485	99.978193598822	1
0	5488	100.032528242984	1
0	5492	100.07763288272	1
0	5496	100.134111051908	1
0	5503	100.178683927935	1
0	5505	100.217200925467	1
0	5511	100.367275461677	1
0	5522	100.534639790118	1
0	5529	100.598175933179	1
0	5540	100.824562052076	1
0	5551	101.063440821477	1
0	5558	101.171260332617	1
0	5564	101.259888519634	1
0	5575	101.403168567554	1
0	5585	101.63217414193	1
0	5588	101.639184616891	1
0	5611	102.337209236215	1
0	5617	102.4258247694	1
0	5623	102.479379235599	1
0	5642	102.99574146715	1
0	5645	103.018890092121	1
0	5649	103.08573013917	1
0	5665	103.433093510187	1
0	5672	103.554219773562	1
0	5680	103.671208448317	1
0	5685	103.750698096403	1
0	5706	104.302480237127	1
0	5724	104.809895018649	1
0	5731	104.9617345044	1
0	5737	104.995780481347	1
0	5760	105.761020935114	1
0	5785	106.501626586269	1
0	5793	106.620098694205	1
0	5803	106.781567601486	1
0	5810	106.893684643715	1
0	5820	107.142067593724	1
0	5823	107.163895680709	1
0	5830	107.255810834145	1
0	5834	107.321750661361	1
0	5850	107.649215258678	1
0	5853	107.65320051905	1
0	5859	107.767714829938	1
0	5864	107.793938422824	1
0	5870	107.923095015117	1
0	5881	108.12844406044	1
0	5897	108.50268451206	1
0	5900	108.507315214071	1
0	5902	108.563878904276	1
0	5909	108.63236340105	1
0	5920	108.826633282734	1
0	5933	109.124085356599	1
0	5943	109.369480239236	1
0	5953	109.546458985961	1
0	5959	109.64456610909	1
0	5970	109.820700125249	1
0	5977	109.920990079636	1
0	5980	109.952346001397	1
0	5994	110.2285610136	1
0	5999	110.316044731641	1
0	6008	110.437674808153	1
0	6015	110.56836431451	1
0	6021	110.615546536023	1
0	6044	111.302643175984	1
0	6051	111.402689879668	1
0	6055	111.436895623694	1
0	6059	111.485308283226	1
0	6063	111.52800785831	1
0	6065	111.566317290789	1
0	6072	111.611924191721	1
0	6078	111.768012742419	1
0	6092	111.976060379209	1
0	6107	112.357060338847	1
0	6113	112.448650418557	1
0	6119	112.482210995402	1
0	6121	112.491003120558	1
0	6137	112.808859144167	1
0	6144	112.915408101394	1
0	6150	113.0094580112	1
0	6154	113.045189006436	1
0	6165	113.238825790941	1
0	6177	113.479198296579	1
0	6180	113.533316086584	1
0	6187	113.586246569285	1
0	6193	113.686956565747	1
0	6195	113.691155699032	1
0	6197	113.725317755299	1
0	6204	113.860318535462	1
0	6206	113.874237221474	1
0	6221	114.15276875955	1
0	6228	114.179941231322	1
0	6230	114.251892639766	1
0	6236	114.356766381167	1
0	6247	114.564625546383	1
0	6263	114.797004732451	1
0	6270	114.904357054127	1
0	6283	115.255247320709	1
0	6290	115.372037333001	1
0	6296	115.409215043462	1
0	6314	115.889939966587	1
0	6324	116.090926583333	1
0	6334	116.335342752824	1
0	6340	116.380063817094	1
0	6342	116.384992366505	1
0	6348	116.509581155076	1
0	6359	116.694945704634	1
0	6361	116.716254503168	1
0	6368	116.810078198575	1
0	6374	116.879881408096	1
0	6392	117.322062636494	1
0	6395	117.33503616623	1
0	6397	117.372581149576	1
0	6406	117.478281005532	1
0	6410	117.524887179998	1
0	6419	117.702712276685	1
0	6421	117.715460031652	1
0	6428	117.807050822687	1
0	6434	117.891005634372	1
0	6438	117.958247758373	1
0	6443	117.975562544898	1
0	6456	118.229491591764	1
0	6465	118.38017251753	1
0	6467	118.387206626177	1
0	6480	118.63086136905	1
0	6484	118.704472615866	1
0	6495	118.883477254898	1
0	6502	118.975495507482	1
0	6513	119.193496193125	1
0	6523	119.3931149908	1
0	6526	119.45600110054	1
0	6542	119.81658907276	1
0	6554	120.097064886407	1
0	6557	120.145800940046	1
0	6564	120.229795120488	1
0	6577	120.485166642357	1
0	6587	120.7457657433	1
0	6597	120.905970579204	1
0	6605	121.053694627712	1
0	6608	121.055396291109	1
0	6612	121.078617959285	1
0	6623	121.278022115674	1
0	6625	121.290266581886	1
0	6632	121.429026442652	1
0	6634	121.431801857258	1
0	6645	121.602725974832	1
0	6647	121.613084279769	1
0	6653	121.744630283873	1
0	6660	121.836665334493	1
0	6668	121.964494149763	1
0	6673	121.982538528123	1
0	6675	122.049720252976	1
0	6679	122.05394674303	1
0	6701	122.531980310911	1
0	6712	122.742870086322	1
0	6735	123.393632580054	1
0	6738	123.468974536275	1
0	6744	123.542416230246	1
0	6755	123.748534637504	1
0	6768	124.019882694947	1
0	6773	124.110215543002	1
0	6794	124.714014133938	1
0	6800	124.803713343699	1
0	6808	124.935762496894	1
0	6814	125.033296487171	1
0	6825	125.200020122316	1
0	6830	125.296389352081	1
0	6834	125.309920166583	1
0	6845	125.553727317249	1
0	6868	126.268010897581	1
0	6873	126.345234065831	1
0	6884	126.572012831386	1
0	6899	126.924599860822	1
0	6924	127.701408143395	1
0	6927	127.707072932079	1
0	6934	127.866135968911	1
0	6947	128.089135634091	1
0	6950	128.094857586295	1
0	6952	128.114997285799	1
0	6963	128.305455086012	1
0	6970	128.450007085288	1
0	6981	128.62477572718	1
0	6984	128.626338478385	1
0	6990	128.767123948324	1
0	6999	128.883156308722	1
0	7001	128.899999189043	1
0	7003	128.900452567754	1
0	7007	128.949870910584	1
0	7030	129.402855551995	1
0	7040	129.627415727832	1
0	7055	129.981133623183	1
0	7067	130.312451810045	1
0	7077	130.550872795791	1
0	7085	130.658058852518	1
0	7100	131.028309329443	1
0	7110	131.216972304496	1
0	7113	131.240568343545	1
0	7115	131.252713881183	1
0	7119	131.27846209051	1
0	7128	131.421757460971	1
0	7130	131.452927675908	1
0	7145	131.725770023283	1
0	7152	131.871896100105	1
0	7163	132.05050789827	1
0	7178	132.4048732881	1
0	7185	132.526345445392	1
0	7208	133.216450124645	1
0	7220	133.512647115129	1
0	7230	133.69890997438	1
0	7240	133.904072978344	1
0	7250	134.101476556326	1
0	7253	134.147567324421	1
0	7269	134.507585768998	1
0	7304	135.763626435763	1
0	7310	135.840468870898	1
0	7318	135.968371891124	1
0	7324	136.011494340569	1
0	7330	136.164350445144	1
0	7337	136.192921076224	1
0	7343	136.29383443503	1
0	7345	136.312916920682	1
0	7361	136.643157955794	1
0	7373	136.8943429127	1
0	7386	137.205672611248	1
0	7389	137.229485463591	1
0	7402	137.511859564249	1
0	7405	137.55789897788	1
0	7416	137.71439996399	1
0	7426	137.970862620687	1
0	7436	138.102993434255	1
0	7439	138.158780704507	1
0	7446	138.208386425342	1
0	7467	138.814513630035	1
0	7489	139.532409635914	1
0	7495	139.578927155179	1
0	7506	139.820088951815	1
0	7513	139.934512856759	1
0	7521	140.03897660761	1
0	7526	140.095610404963	1
0	7537	140.317579451914	1
0	7552	140.680064915129	1
0	7555	140.699971253123	1
0	7557	140.768458957479	1
0	7575	141.149238989896	1
0	7581	141.234505169203	1
0	7583	141.241386095509	1
0	7589	141.349092071983	1
0	7596	141.388025242159	1
0	7614	141.807278561544	1
0	7626	142.084515036196	1
0	7629	142.089230742349	1
0	7631	142.143930678066	1
0	7642	142.333212636179	1
0	7649	142.432553417668	1
0	7662	142.765040608594	1
0	7672	142.922536895103	1
0	7675	142.926686860415	1
0	7677	142.94999958091	1
0	7684	143.060737346631	1
0	7688	143.115486242672	1
0	7695	143.174662749433	1
0	7710	143.501612321282	1
0	7724	143.79598308745	1
0	7736	144.122828518249	1
0	7744	144.24547072916	1
0	7751	144.354078710726	1
0	7761	144.529866459815	1
0	7767	144.576475813671	1
0	7771	144.666931616771	1
0	7787	144.985401100342	1
0	7794	145.133854979157	1
0	7802	145.237223265288	1
0	7807	145.288617275502	1
0	7811	145.34946087806	1
0	7813	145.350869760601	1
0	7831	145.688506208674	1
0	7839	145.817477151444	1
0	7842	145.851791619382	1
0	7846	145.907765459846	1
0	7859	146.164656133318	1
0	7867	146.273900055211	1
0	7879	146.547701698121	1
0	7894	146.919968960566	1
0	7902	147.030940652054	1
0	7907	147.114333659252	1
0	7911	147.140833120584	1
0	7916	147.183465540519	1
0	7934	147.629787402428	1
0	7939	147.699401077332	1
0	7941	147.708594500193	1
0	7959	148.111525580969	1
0	7972	148.437917765126	1
0	7987	148.852297791888	1
0	7997	148.980416435873	1
0	8007	149.259418923517	1
0	8012	149.330845575286	1
0	8028	149.710092588428	1
0	8036	149.863717942506	1
0	8041	149.902514179835	1
0	8043	149.923025862741	1
0	8045	149.936758017762	1
0	8052	150.015067010175	1
0	8054	150.05374856051	1
0	8060	150.119852591316	1
0	8067	150.17646661326	1
0	8069	150.201048598254	1
0	8071	150.229861820195	1
0	8086	150.521046702629	1
0	8093	150.661174498796	1
0	8099	150.677313557361	1
0	8101	150.75737305108	1
0	8126	151.216400884142	1
0	8137	151.470610644146	1
0	8142	151.497985367335	1
0	8144	151.528694443452	1
0	8151	151.615507776603	1
0	8162	151.797044909582	1
0	8164	151.823272291205	1
0	8166	151.864508022354	1
0	8186	152.181640013505	1
0	8193	152.309714566696	1
0	8199	152.407357185596	1
0	8203	152.471741172939	1
0	8209	152.548153515154	1
0	8211	152.556951202378	1
0	8216	152.605286057712	1
0	8220	152.644259847497	1
0	8222	152.652213208114	1
0	8233	152.815855619358	1
0	8235	152.838255026034	1
0	8241	152.941404390124	1
0	8252	153.167598051326	1
0	8261	153.277386238635	1
0	8263	153.306798207995	1
0	8267	153.335603118101	1
0	8274	153.466961304656	1
0	8283	153.593806737344	1
0	8303	153.988728294875	1
0	8329	154.848251470105	1
0	8332	154.865338329212	1
0	8345	155.119943605218	1
0	8351	155.210342072487	1
0	8359	155.345690124493	1
0	8362	155.37112920856	1
0	8383	155.930516121774	1
0	8389	155.984922408004	1
0	8402	156.332672553294	1
0	8412	156.549339873555	1
0	8422	156.685145434739	1
0	8430	156.833040579019	1
0	8433	156.837985135106	1
0	8442	157.024233905615	1
0	8446	157.03897130106	1
0	8448	157.071221675119	1
0	8452	157.081362633188	1
0	8454	157.091995395538	1
0	8461	157.182144368807	1
0	8476	157.499754507799	1
0	8480	157.570359448341	1
0	8485	157.628175495688	1
0	8510	158.183622443515	1
0	8517	158.322755534338	1
0	8520	158.350340947396	1
0	8539	158.816207079807	1
0	8556	159.356819406327	1
0	8562	159.4374441652	1
0	8573	159.656257714097	1
0	8578	159.688960886033	1
0	8589	159.949754421464	1
0	8595	159.976987825313	1
0	8601	160.127189899823	1
0	8610	160.27423713944	1
0	8620	160.439961622956	1
0	8623	160.448652660673	1
0	8629	160.545844990184	1
0	8634	160.605592980103	1
0	8636	160.607576490072	1
0	8661	161.197500937736	1
0	8664	161.262813695921	1
0	8677	161.484310494868	1
0	8685	161.585922773633	1
0	8688	161.621154424544	1
0	8699	161.817605101895	1
0	8706	161.949628653778	1
0	8712	162.044472690905	1
0	8718	162.131388708044	1
0	8725	162.223097499246	1
0	8733	162.365712036961	1
0	8739	162.387928361542	1
0	8741	162.445771433259	1
0	8743	162.447413700943	1
0	8745	162.465214299604	1
0	8760	162.678209509141	1
0	8762	162.734525853545	1
0	8769	162.792364821029	1
0	8796	163.558219258281	1
0	8819	164.182132915342	1
0	8822	164.209320586488	1
0	8824	164.24663484123	1
0	8830	164.339876098213	1
0	8837	164.401910071081	1
0	8843	164.553301442849	1
0	8850	164.664619329688	1
0	8852	164.670288312585	1
0	8865	164.881196434401	1
0	8869	164.925005033704	1
0	8876	165.018508405965	1
0	8891	165.324787107476	1
0	8894	165.344786398733	1
0	8896	165.36734552996	1
0	8901	165.423549849125	1
0	8905	165.426285283745	1
0	8911	165.531619275561	1
0	8920	165.70715837387	1
0	8931	165.875217596773	1
0	8947	166.182499492126	1
0	8957	166.403048716916	1
0	8960	166.46894271222	1
0	8964	166.489889927096	1
0	8968	166.565715675147	1
0	8970	166.569192938811	1
0	8986	166.867262468084	1
0	8995	166.977071342089	1
0	9011	167.380876849316	1
0	9021	167.629977617523	1
0	9026	167.719860283422	1
0	9028	167.721762863195	1
0	9051	168.275042648509	1
0	9059	168.442468920127	1
0	9069	168.622036931633	1
0	9079	168.796177867533	1
0	9089	169.006304106406	1
0	9094	169.095774366256	1
0	9103	169.225106676849	1
0	9118	169.59449983629	1
0	9121	169.616185420394	1
0	9127	169.771261321212	1
0	9141	170.01856536111	1
0	9144	170.019353403265	1
0	9146	170.035937607394	1
0	9152	170.135309483813	1
0	9157	170.196620092492	1
0	9172	170.490807877182	1
0	9179	170.615450262338	1
0	9192	170.881596764189	1
0	9200	171.027759670274	1
0	9210	171.184870937823	1
0	9215	171.276772270731	1
0	9224	171.444762255258	1
0	9236	171.696143186109	1
0	9244	171.825733362466	1
0	9247	171.868538320812	1