version 3
run BaseVersion-5-20240511-20:48:36-11938
attr configname BaseVersion
attr datetime 20240511-20:48:36
attr datetimef 20240511-204836
attr experiment BaseVersion
attr inifile omnetpp.ini
attr iterationvars $genInterval=0.35
attr iterationvarsd genInterval=0.35
attr iterationvarsf genInterval=0.35-
attr measurement $genInterval=0.35
attr network Network
attr processid 11938
attr repetition 0
attr replication #0
attr resultdir results
attr runnumber 5
attr seedset 5
itervar genInterval 0.35
config network Network
config sim-time-limit 200s
config Network.nodeTx.gen.generationInterval exponential(0.35)
config Network.nodeTx.gen.packetByteSize 12500
config Network.nodeTx.queue.bufferSize 200
config Network.nodeRx.queue.bufferSize 200
config Network.queue.bufferSize 200

vector 0 Network.nodeTx.gen packetGen ETV
vector 1 Network.nodeTx.queue bufferSize ETV
vector 2 Network.queue bufferSize ETV
vector 3 Network.nodeRx.queue bufferSize ETV
vector 4 Network.nodeRx.sink Delay ETV
vector 5 Network.nodeRx.sink packetUsed ETV
0	1	0.087856992192	1
0	4	0.107723332959	1
0	21	0.823777783242	1
0	32	1.446707198619	1
0	35	1.527759485918	1
0	42	1.686009576054	1
0	62	2.563989467379	1
0	73	3.92361729734	1
0	79	4.158199226058	1
0	82	4.191139137606	1
0	97	4.522270639911	1
0	107	4.699161120275	1
0	124	5.207375288622	1
0	130	5.360384608913	1
0	140	5.616122168926	1
0	151	5.849493078192	1
0	160	5.97273320139	1
0	177	7.614523570689	1
0	180	7.687292658748	1
0	197	8.265397494041	1
0	200	8.294863175281	1
0	210	8.661760216099	1
0	227	9.131142660967	1
0	238	9.730298490325	1
0	244	9.934054186594	1
0	250	10.031278966658	1
0	255	10.091599136589	1
0	273	10.597525377366	1
0	289	11.339434011982	1
0	292	11.380575261141	1
0	297	11.492688790369	1
0	301	11.572611472865	1
0	312	11.759804295575	1
0	315	11.804186360201	1
0	322	11.927068024952	1
0	348	12.663097046349	1
0	360	13.009940641585	1
0	371	13.269520062536	1
0	385	13.573010127838	1
0	393	13.810149679565	1
0	407	14.130789489591	1
0	420	14.591490093033	1
0	426	14.699640041377	1
0	429	14.704780874439	1
0	433	14.822042602668	1
0	435	14.856347211501	1
0	442	14.958714448991	1
0	465	15.571876096645	1
0	475	15.710772984947	1
0	495	16.338223723274	1
0	500	16.392710622383	1
0	517	17.173013588239	1
0	520	17.23638381183	1
0	537	18.346026306061	1
0	548	19.508834266599	1
0	554	19.797242697141	1
0	570	20.925838695362	1
0	573	20.95905853321	1
0	578	21.03212653551	1
0	599	22.963669197701	1
0	602	22.972281591855	1
0	609	23.199411369809	1
0	615	23.279510360296	1
0	631	23.683730526241	1
0	646	24.104938602396	1
0	659	24.753804493207	1
0	670	25.282977795382	1
0	679	25.61808104735	1
0	682	25.626201098165	1
0	691	25.916089035664	1
0	704	26.217772018513	1
0	714	26.378464915345	1
0	717	26.379040147334	1
0	733	26.790007123509	1
0	745	27.043610581857	1
0	761	27.636416519095	1
0	770	27.993795371567	1
0	783	28.903404773762	1
0	794	30.388182891915	1
0	797	30.390195941243	1
0	802	30.495156170243	1
0	816	30.941394323519	1
0	833	31.509094650058	1
0	842	31.894021281637	1
0	855	32.609401624767	1
0	858	32.687399247017	1
0	875	33.583645408897	1
0	886	34.0011664475	1
0	889	34.00194228208	1
0	899	34.30176628656	1
0	909	34.523635978323	1
0	921	34.827029086004	1
0	937	36.222932756393	1
0	940	36.24627128352	1
0	947	36.424445262667	1
0	950	36.49272962711	1
0	971	37.080929595643	1
0	982	37.227170755811	1
0	992	37.503903185776	1
0	1006	37.832303759415	1
0	1019	38.347992472222	1
0	1022	38.424118586097	1
0	1032	38.656327682267	1
0	1035	38.701685773111	1
0	1037	38.7120260708	1
0	1067	39.666983428161	1
0	1070	39.698658435819	1
0	1075	39.82902813869	1
0	1079	39.870387165521	1
0	1090	40.095456796456	1
0	1098	40.196727058094	1
0	1101	40.219207870647	1
0	1134	41.391704394648	1
0	1140	41.504424816321	1
0	1150	41.854087700512	1
0	1156	41.94374663893	1
0	1175	42.537491539682	1
0	1186	43.540466814291	1
0	1192	43.832681709932	1
0	1203	43.998459100006	1
0	1216	44.351551104924	1
0	1224	44.521073685165	1
0	1239	45.105851681506	1
0	1245	45.231690327682	1
0	1260	46.146225488028	1
0	1263	46.222201992195	1
0	1280	47.075350190629	1
0	1291	47.541899739976	1
0	1302	48.151560630723	1
0	1313	49.069065397697	1
0	1316	49.103694315169	1
0	1328	49.507156779867	1
0	1337	49.663931088675	1
0	1347	49.857132774623	1
0	1350	49.869786959262	1
0	1363	50.162219201928	1
0	1376	50.438875903205	1
0	1381	50.523591685691	1
0	1400	51.080208992983	1
0	1405	51.13999782262	1
0	1407	51.158371761929	1
0	1429	51.790736488651	1
0	1432	51.863913650683	1
0	1451	52.516553944024	1
0	1457	52.675762977097	1
0	1470	53.036939134134	1
0	1475	53.134973688025	1
0	1480	53.185425630498	1
0	1499	53.740235862259	1
0	1502	53.808297522637	1
0	1511	53.960201408329	1
0	1519	54.094601075372	1
0	1534	54.4510895663	1
0	1551	55.544724399695	1
0	1557	55.782746539651	1
0	1563	55.8726754496	1
0	1575	56.179229318657	1
0	1592	56.953972334266	1
0	1603	57.934602640466	1
0	1614	58.878563866715	1
0	1625	59.884542398286	1
0	1628	59.915673500392	1
0	1630	59.957126529581	1
0	1649	60.540942001076	1
0	1665	61.190209687543	1
0	1676	63.006913620389	1
0	1682	63.155555460363	1
0	1690	63.307798867658	1
0	1693	63.344996913631	1
0	1704	63.576614794099	1
0	1714	63.745857105585	1
0	1731	64.220212142576	1
0	1742	64.470138119813	1
0	1753	64.633395215021	1
0	1768	65.769789368397	1
0	1771	65.782316011469	1
0	1776	65.944869777612	1
0	1780	66.002849701874	1
0	1782	66.007205993856	1
0	1789	66.143062332216	1
0	1814	66.830469831271	1
0	1820	66.874221711103	1
0	1822	66.915445631443	1
0	1833	67.07147382312	1
0	1844	67.299231917781	1
0	1859	67.717831631819	1
0	1881	68.381777035081	1
0	1892	68.931759357901	1
0	1898	69.184832547747	1
0	1909	69.39164675015	1
0	1920	69.598737674457	1
0	1936	70.834868525403	1
0	1947	71.399006521856	1
0	1953	71.649189011518	1
0	1956	71.656399765385	1
0	1968	71.889403361057	1
0	1981	72.186930861826	1
0	1984	72.206143097603	1
0	1995	72.391636312236	1
0	2000	72.490617886438	1
0	2026	73.963721165301	1
0	2037	74.457321258477	1
0	2048	75.023085838082	1
0	2057	75.368714164086	1
0	2060	75.388129589806	1
0	2077	75.87057923735	1
0	2080	75.944538104378	1
0	2099	77.483787018373	1
0	2105	77.694572627711	1
0	2119	78.006577985295	1
0	2132	78.431417827279	1
0	2138	78.67851111441	1
0	2147	78.819749829671	1
0	2152	78.905494207043	1
0	2161	79.061685504042	1
0	2173	79.360406455615	1
0	2193	80.250905062129	1
0	2204	80.783909504347	1
0	2215	81.858799232583	1
0	2226	82.479428113915	1
0	2232	82.66272938845	1
0	2235	82.759275703617	1
0	2256	83.560214915202	1
0	2267	84.235984758002	1
0	2273	84.376284229242	1
0	2276	84.43013871283	1
0	2278	84.460365674451	1
0	2299	84.959691643103	1
0	2309	85.221513673933	1
0	2326	86.170435909831	1
0	2335	86.548889595108	1
0	2348	86.989436119005	1
0	2359	87.771609007724	1
0	2362	87.819567678603	1
0	2379	88.994489238629	1
0	2382	89.040154066029	1
0	2397	89.554438216888	1
0	2408	89.879817672075	1
0	2421	90.377997065433	1
0	2432	91.816590062279	1
0	2443	92.249905279959	1
0	2454	93.071841692845	1
0	2465	93.495048515223	1
0	2471	93.600925725261	1
0	2486	94.111274746333	1
0	2495	94.429127757756	1
0	2508	95.711244723435	1
0	2514	95.853515624745	1
0	2522	96.017297762419	1
0	2532	96.223690924435	1
0	2535	96.254038436513	1
0	2551	96.61643811258	1
0	2556	96.71232546147	1
0	2565	96.858644742026	1
0	2570	96.946272192234	1
0	2591	97.596851166164	1
0	2602	97.755025848024	1
0	2615	98.101417983961	1
0	2628	98.683253235285	1
0	2631	98.761434203791	1
0	2633	98.78312640527	1
0	2640	98.950983293722	1
0	2651	99.160063091182	1
0	2664	99.419522716349	1
0	2684	100.006668366454	1
0	2695	100.400449194207	1
0	2703	100.507846376226	1
0	2708	100.623435313699	1
0	2711	100.646360324601	1
0	2730	101.136404981488	1
0	2735	101.233429864273	1
0	2751	101.656645359616	1
0	2754	101.687763239452	1
0	2759	101.723096932908	1
0	2780	102.300282428136	1
0	2783	102.337932766901	1
0	2791	102.403253589721	1
0	2797	102.550796477851	1
0	2804	102.626865897252	1
0	2825	103.227047792847	1
0	2842	103.816960969917	1
0	2853	104.721905229483	1
0	2864	105.303687524756	1
0	2875	105.800493966796	1
0	2884	106.112019216477	1
0	2897	106.851442938321	1
0	2908	107.713137139962	1
0	2919	108.386936992381	1
0	2922	108.408526978876	1
0	2924	108.473931444704	1
0	2948	109.647240403752	1
0	2957	109.954818940591	1
0	2965	110.251003146664	1
0	2976	110.402150821924	1
0	2981	110.528248376892	1
0	2999	110.997913321856	1
0	3012	111.609367098765	1
0	3015	111.619656666536	1
0	3025	111.996640702406	1
0	3030	112.063107251878	1
0	3051	113.569917670167	1
0	3054	113.620227418178	1
0	3056	113.660028378997	1
0	3080	115.033275942855	1
0	3089	115.337667414249	1
0	3102	116.278860699316	1
0	3108	116.50294074187	1
0	3124	116.931665077536	1
0	3133	117.301381005277	1
0	3146	118.26372380932	1
0	3149	118.360633896876	1
0	3164	118.828342003276	1
0	3167	118.839410717996	1
0	3174	119.00928100988	1
0	3185	119.284301256015	1
0	3205	120.055854968913	1
0	3211	120.214640860001	1
0	3221	120.514938349503	1
0	3237	121.294988477064	1
0	3248	121.913867704884	1
0	3254	122.129108962546	1
0	3257	122.164167515646	1
0	3269	122.354010790428	1
0	3272	122.400681731941	1
0	3288	122.751429361496	1
0	3303	123.201464792912	1
0	3314	123.463628107795	1
0	3320	123.545148374176	1
0	3339	124.682516177748	1
0	3345	124.840064169905	1
0	3360	125.384644939961	1
0	3371	126.398260889962	1
0	3377	126.638556870158	1
0	3393	127.113058271285	1
0	3396	127.196066961006	1
0	3403	127.39138114872	1
0	3418	127.715586506139	1
0	3421	127.779108512151	1
0	3441	128.262323326942	1
0	3449	128.525411118372	1
0	3465	129.018921323477	1
0	3468	129.059383876682	1
0	3485	130.822183108456	1
0	3496	131.247818574415	1
0	3499	131.334106625018	1
0	3516	131.871299065539	1
0	3522	132.065372056286	1
0	3537	132.751129997851	1
0	3543	132.944115286242	1
0	3558	133.368104710971	1
0	3564	133.502390583823	1
0	3579	134.311869931064	1
0	3585	134.470999129899	1
0	3600	134.977496169341	1
0	3606	135.204987512864	1
0	3622	135.703861923016	1
0	3628	135.977241156957	1
0	3634	136.00524987734	1
0	3641	136.113119210442	1
0	3643	136.149656637826	1
0	3647	136.200158302572	1
0	3654	136.314141507121	1
0	3660	136.439922059738	1
0	3667	136.497823451982	1
0	3669	136.549181869076	1
0	3675	136.589936611567	1
0	3682	136.723736758028	1
0	3693	136.952020945985	1
0	3711	137.349930147228	1
0	3721	137.486701016871	1
0	3733	137.808578253451	1
0	3748	138.226685819714	1
0	3783	140.28723150251	1
0	3789	140.481412995694	1
0	3799	140.769484460499	1
0	3815	141.425108590011	1
0	3821	141.703596950029	1
0	3832	141.924438022304	1
0	3846	142.284307716159	1
0	3859	142.976163601548	1
0	3870	143.43029289601	1
0	3873	143.452317540877	1
0	3883	143.78713708802	1
0	3888	143.842297926827	1
0	3902	144.153079173533	1
0	3914	144.519057966246	1
0	3928	144.844166119641	1
0	3936	145.015369799348	1
0	3944	145.168730140463	1
0	3954	145.385898112856	1
0	3971	145.911702403418	1
0	3974	145.951369218435	1
0	3984	146.276122233357	1
0	3989	146.344583283935	1
0	3996	146.474065599203	1
0	4009	146.77343126484	1
0	4015	146.872087039769	1
0	4028	147.152318873337	1
0	4031	147.178195387265	1
0	4042	147.399684185401	1
0	4052	147.549237579479	1
0	4072	148.198636468981	1
0	4075	148.20316243187	1
0	4085	148.327411995742	1
0	4087	148.390794372729	1
0	4103	148.741786642213	1
0	4106	148.763579497282	1
0	4117	148.946227816356	1
0	4124	149.060308965986	1
0	4134	149.286532606468	1
0	4144	149.436409617916	1
0	4167	150.150193412687	1
0	4179	150.463297751634	1
0	4190	150.629273930715	1
0	4205	151.151373565047	1
0	4211	151.382689541052	1
0	4225	151.725750689856	1
0	4228	151.778695874409	1
0	4235	151.839586642215	1
0	4237	151.867040899232	1
0	4263	152.651768746313	1
0	4276	153.059532293669	1
0	4287	153.518566252578	1
0	4298	154.118868602166	1
0	4304	154.35991120333	1
0	4318	154.695540468344	1
0	4329	155.056675521075	1
0	4342	155.849125043908	1
0	4348	156.098422771513	1
0	4362	156.446910875366	1
0	4367	156.511371445995	1
0	4384	157.07524087233	1
0	4393	157.434245798521	1
0	4401	157.591577171432	1
0	4416	159.144501831833	1
0	4419	159.154338385621	1
0	4434	159.669226532446	1
0	4447	160.596634124928	1
0	4450	160.66672474918	1
0	4460	160.956227318515	1
0	4465	161.000877143555	1
0	4486	161.667183124206	1
0	4497	162.599637553511	1
0	4503	162.795856142888	1
0	4518	163.639016205574	1
0	4529	164.073276744928	1
0	4540	164.557340150597	1
0	4551	165.259157401029	1
0	4562	165.75942414737	1
0	4568	165.954374436417	1
0	4571	166.008334789883	1
0	4592	167.337112896323	1
0	4603	167.921968665935	1
0	4612	168.293059700028	1
0	4617	168.367798329877	1
0	4622	168.454950229044	1
0	4626	168.513791199253	1
0	4628	168.521487522525	1
0	4639	168.704430436633	1
0	4653	169.082964683244	1
0	4656	169.083098723747	1
0	4660	169.166518037005	1
0	4686	169.820204815816	1
0	4693	169.929887971281	1
0	4696	169.991383829488	1
0	4717	170.545856470675	1
0	4735	171.016325077237	1
0	4738	171.03784120397	1
0	4750	171.343900525318	1
0	4757	171.489260307147	1
0	4775	172.004042771073	1
0	4783	172.297891429069	1
0	4797	172.618587205772	1
0	4808	172.991119239931	1
0	4821	174.130807719531	1
0	4827	174.370721347353	1
0	4838	174.537908794886	1
0	4848	174.83428652448	1
0	4859	175.074801512504	1
0	4875	176.436367924304	1
0	4881	176.580918417408	1
0	4896	177.080011593872	1
0	4907	177.555210018317	1
0	4918	179.565638030719	1
0	4924	179.690722282531	1
0	4939	180.550944170673	1
0	4950	181.11212983231	1
0	4961	182.042483047561	1
0	4964	182.073937464853	1
0	4966	182.112274339036	1
0	4971	182.206335903862	1
0	4973	182.213276413079	1
0	4982	182.415070313926	1
0	4988	182.513839237856	1
0	4995	182.560993816834	1
0	4997	182.571929033487	1
0	5003	182.651358290497	1
0	5005	182.717705773677	1
0	5035	183.3625004016	1
0	5055	183.97810466792	1
0	5062	184.141171055096	1
0	5092	185.083879739944	1
0	5095	185.170250180928	1
0	5112	185.920956423873	1
0	5123	186.576039373638	1
0	5126	186.581531429353	1
0	5136	186.881323252731	1
0	5143	187.002677060523	1
0	5156	187.354198716183	1
0	5173	187.881161107669	1
0	5184	188.650314652998	1
0	5190	188.883630407402	1
0	5206	189.321697523906	1
0	5217	189.851216572849	1
0	5223	189.959029898447	1
0	5238	191.957436265914	1
0	5241	191.960850776258	1
0	5243	191.992783737842	1
0	5255	192.271844370662	1
0	5258	192.331620721734	1
0	5276	192.761903814883	1
0	5286	192.97699121352	1
0	5304	193.55040467462	1
0	5317	194.752179411352	1
0	5320	194.826215488455	1
0	5322	194.827935928781	1
0	5336	195.179933579357	1
0	5342	195.255067702095	1
0	5365	196.231420401314	1
0	5371	196.424433909541	1
0	5376	196.52896395015	1
0	5396	197.314278951418	1
0	5402	197.435375461003	1
0	5417	197.959071987161	1
0	5423	198.153149048334	1
0	5426	198.245860476015	1
0	5440	198.542210645196	1
0	5445	198.615270682819	1
1	2	0.087856992192	1
1	5	0.107723332959	1
1	22	0.823777783242	1
1	33	1.446707198619	1
1	36	1.527759485918	1
1	43	1.686009576054	1
1	63	2.563989467379	1
1	74	3.92361729734	1
1	80	4.158199226058	1
1	83	4.191139137606	1
1	98	4.522270639911	1
1	108	4.699161120275	1
1	125	5.207375288622	1
1	131	5.360384608913	1
1	141	5.616122168926	1
1	152	5.849493078192	1
1	161	5.97273320139	1
1	178	7.614523570689	1
1	181	7.687292658748	1
1	198	8.265397494041	1
1	201	8.294863175281	1
1	211	8.661760216099	1
1	228	9.131142660967	1
1	239	9.730298490325	1
1	245	9.934054186594	1
1	251	10.031278966658	1
1	256	10.091599136589	1
1	274	10.597525377366	1
1	290	11.339434011982	1
1	293	11.380575261141	1
1	298	11.492688790369	1
1	302	11.572611472865	1
1	313	11.759804295575	1
1	316	11.804186360201	1
1	323	11.927068024952	1
1	349	12.663097046349	1
1	361	13.009940641585	1
1	372	13.269520062536	1
1	386	13.573010127838	1
1	394	13.810149679565	1
1	408	14.130789489591	1
1	421	14.591490093033	1
1	427	14.699640041377	1
1	430	14.704780874439	1
1	434	14.822042602668	1
1	436	14.856347211501	2
1	443	14.958714448991	2
1	466	15.571876096645	1
1	476	15.710772984947	1
1	496	16.338223723274	1
1	501	16.392710622383	1
1	518	17.173013588239	1
1	521	17.23638381183	1
1	538	18.346026306061	1
1	549	19.508834266599	1
1	555	19.797242697141	1
1	571	20.925838695362	1
1	574	20.95905853321	1
1	579	21.03212653551	1
1	600	22.963669197701	1
1	603	22.972281591855	1
1	610	23.199411369809	1
1	616	23.279510360296	1
1	632	23.683730526241	1
1	647	24.104938602396	1
1	660	24.753804493207	1
1	671	25.282977795382	1
1	680	25.61808104735	1
1	683	25.626201098165	1
1	692	25.916089035664	1
1	705	26.217772018513	1
1	715	26.378464915345	1
1	718	26.379040147334	1
1	734	26.790007123509	1
1	746	27.043610581857	1
1	762	27.636416519095	1
1	771	27.993795371567	1
1	784	28.903404773762	1
1	795	30.388182891915	1
1	798	30.390195941243	1
1	803	30.495156170243	1
1	817	30.941394323519	1
1	834	31.509094650058	1
1	843	31.894021281637	1
1	856	32.609401624767	1
1	859	32.687399247017	1
1	876	33.583645408897	1
1	887	34.0011664475	1
1	890	34.00194228208	1
1	900	34.30176628656	1
1	910	34.523635978323	1
1	922	34.827029086004	1
1	938	36.222932756393	1
1	941	36.24627128352	1
1	948	36.424445262667	1
1	951	36.49272962711	1
1	972	37.080929595643	1
1	983	37.227170755811	1
1	993	37.503903185776	1
1	1007	37.832303759415	1
1	1020	38.347992472222	1
1	1023	38.424118586097	1
1	1033	38.656327682267	1
1	1036	38.701685773111	1
1	1038	38.7120260708	2
1	1068	39.666983428161	1
1	1071	39.698658435819	1
1	1076	39.82902813869	1
1	1080	39.870387165521	1
1	1091	40.095456796456	1
1	1099	40.196727058094	1
1	1102	40.219207870647	1
1	1135	41.391704394648	1
1	1141	41.504424816321	1
1	1151	41.854087700512	1
1	1157	41.94374663893	1
1	1176	42.537491539682	1
1	1187	43.540466814291	1
1	1193	43.832681709932	1
1	1204	43.998459100006	1
1	1217	44.351551104924	1
1	1225	44.521073685165	1
1	1240	45.105851681506	1
1	1246	45.231690327682	1
1	1261	46.146225488028	1
1	1264	46.222201992195	1
1	1281	47.075350190629	1
1	1292	47.541899739976	1
1	1303	48.151560630723	1
1	1314	49.069065397697	1
1	1317	49.103694315169	1
1	1329	49.507156779867	1
1	1338	49.663931088675	1
1	1348	49.857132774623	1
1	1351	49.869786959262	1
1	1364	50.162219201928	1
1	1377	50.438875903205	1
1	1382	50.523591685691	1
1	1401	51.080208992983	1
1	1406	51.13999782262	1
1	1408	51.158371761929	2
1	1430	51.790736488651	1
1	1433	51.863913650683	1
1	1452	52.516553944024	1
1	1458	52.675762977097	1
1	1471	53.036939134134	1
1	1476	53.134973688025	1
1	1481	53.185425630498	1
1	1500	53.740235862259	1
1	1503	53.808297522637	1
1	1512	53.960201408329	1
1	1520	54.094601075372	1
1	1535	54.4510895663	1
1	1552	55.544724399695	1
1	1558	55.782746539651	1
1	1564	55.8726754496	1
1	1576	56.179229318657	1
1	1593	56.953972334266	1
1	1604	57.934602640466	1
1	1615	58.878563866715	1
1	1626	59.884542398286	1
1	1629	59.915673500392	1
1	1631	59.957126529581	2
1	1650	60.540942001076	1
1	1666	61.190209687543	1
1	1677	63.006913620389	1
1	1683	63.155555460363	1
1	1691	63.307798867658	1
1	1694	63.344996913631	1
1	1705	63.576614794099	1
1	1715	63.745857105585	1
1	1732	64.220212142576	1
1	1743	64.470138119813	1
1	1754	64.633395215021	1
1	1769	65.769789368397	1
1	1772	65.782316011469	1
1	1777	65.944869777612	1
1	1781	66.002849701874	1
1	1783	66.007205993856	2
1	1790	66.143062332216	2
1	1815	66.830469831271	1
1	1821	66.874221711103	1
1	1823	66.915445631443	2
1	1834	67.07147382312	1
1	1845	67.299231917781	1
1	1860	67.717831631819	1
1	1882	68.381777035081	1
1	1893	68.931759357901	1
1	1899	69.184832547747	1
1	1910	69.39164675015	1
1	1921	69.598737674457	1
1	1937	70.834868525403	1
1	1948	71.399006521856	1
1	1954	71.649189011518	1
1	1957	71.656399765385	1
1	1969	71.889403361057	1
1	1982	72.186930861826	1
1	1985	72.206143097603	1
1	1996	72.391636312236	1
1	2001	72.490617886438	1
1	2027	73.963721165301	1
1	2038	74.457321258477	1
1	2049	75.023085838082	1
1	2058	75.368714164086	1
1	2061	75.388129589806	1
1	2078	75.87057923735	1
1	2081	75.944538104378	1
1	2100	77.483787018373	1
1	2106	77.694572627711	1
1	2120	78.006577985295	1
1	2133	78.431417827279	1
1	2139	78.67851111441	1
1	2148	78.819749829671	1
1	2153	78.905494207043	1
1	2162	79.061685504042	1
1	2174	79.360406455615	1
1	2194	80.250905062129	1
1	2205	80.783909504347	1
1	2216	81.858799232583	1
1	2227	82.479428113915	1
1	2233	82.66272938845	1
1	2236	82.759275703617	1
1	2257	83.560214915202	1
1	2268	84.235984758002	1
1	2274	84.376284229242	1
1	2277	84.43013871283	1
1	2279	84.460365674451	2
1	2300	84.959691643103	1
1	2310	85.221513673933	1
1	2327	86.170435909831	1
1	2336	86.548889595108	1
1	2349	86.989436119005	1
1	2360	87.771609007724	1
1	2363	87.819567678603	1
1	2380	88.994489238629	1
1	2383	89.040154066029	1
1	2398	89.554438216888	1
1	2409	89.879817672075	1
1	2422	90.377997065433	1
1	2433	91.816590062279	1
1	2444	92.249905279959	1
1	2455	93.071841692845	1
1	2466	93.495048515223	1
1	2472	93.600925725261	1
1	2487	94.111274746333	1
1	2496	94.429127757756	1
1	2509	95.711244723435	1
1	2515	95.853515624745	1
1	2523	96.017297762419	1
1	2533	96.223690924435	1
1	2536	96.254038436513	1
1	2552	96.61643811258	1
1	2557	96.71232546147	1
1	2566	96.858644742026	1
1	2571	96.946272192234	1
1	2592	97.596851166164	1
1	2603	97.755025848024	1
1	2616	98.101417983961	1
1	2629	98.683253235285	1
1	2632	98.761434203791	1
1	2634	98.78312640527	2
1	2641	98.950983293722	1
1	2652	99.160063091182	1
1	2665	99.419522716349	1
1	2685	100.006668366454	1
1	2696	100.400449194207	1
1	2704	100.507846376226	1
1	2709	100.623435313699	1
1	2712	100.646360324601	1
1	2731	101.136404981488	1
1	2736	101.233429864273	1
1	2752	101.656645359616	1
1	2755	101.687763239452	1
1	2760	101.723096932908	2
1	2781	102.300282428136	1
1	2784	102.337932766901	1
1	2792	102.403253589721	1
1	2798	102.550796477851	1
1	2805	102.626865897252	1
1	2826	103.227047792847	1
1	2843	103.816960969917	1
1	2854	104.721905229483	1
1	2865	105.303687524756	1
1	2876	105.800493966796	1
1	2885	106.112019216477	1
1	2898	106.851442938321	1
1	2909	107.713137139962	1
1	2920	108.386936992381	1
1	2923	108.408526978876	1
1	2925	108.473931444704	2
1	2949	109.647240403752	1
1	2958	109.954818940591	1
1	2966	110.251003146664	1
1	2977	110.402150821924	1
1	2982	110.528248376892	1
1	3000	110.997913321856	1
1	3013	111.609367098765	1
1	3016	111.619656666536	1
1	3026	111.996640702406	1
1	3031	112.063107251878	1
1	3052	113.569917670167	1
1	3055	113.620227418178	1
1	3057	113.660028378997	2
1	3081	115.033275942855	1
1	3090	115.337667414249	1
1	3103	116.278860699316	1
1	3109	116.50294074187	1
1	3125	116.931665077536	1
1	3134	117.301381005277	1
1	3147	118.26372380932	1
1	3150	118.360633896876	1
1	3165	118.828342003276	1
1	3168	118.839410717996	1
1	3175	119.00928100988	1
1	3186	119.284301256015	1
1	3206	120.055854968913	1
1	3212	120.214640860001	1
1	3222	120.514938349503	1
1	3238	121.294988477064	1
1	3249	121.913867704884	1
1	3255	122.129108962546	1
1	3258	122.164167515646	1
1	3270	122.354010790428	1
1	3273	122.400681731941	1
1	3289	122.751429361496	1
1	3304	123.201464792912	1
1	3315	123.463628107795	1
1	3321	123.545148374176	1
1	3340	124.682516177748	1
1	3346	124.840064169905	1
1	3361	125.384644939961	1
1	3372	126.398260889962	1
1	3378	126.638556870158	1
1	3394	127.113058271285	1
1	3397	127.196066961006	1
1	3404	127.39138114872	1
1	3419	127.715586506139	1
1	3422	127.779108512151	1
1	3442	128.262323326942	1
1	3450	128.525411118372	1
1	3466	129.018921323477	1
1	3469	129.059383876682	1
1	3486	130.822183108456	1
1	3497	131.247818574415	1
1	3500	131.334106625018	1
1	3517	131.871299065539	1
1	3523	132.065372056286	1
1	3538	132.751129997851	1
1	3544	132.944115286242	1
1	3559	133.368104710971	1
1	3565	133.502390583823	1
1	3580	134.311869931064	1
1	3586	134.470999129899	1
1	3601	134.977496169341	1
1	3607	135.204987512864	1
1	3623	135.703861923016	1
1	3629	135.977241156957	1
1	3635	136.00524987734	1
1	3642	136.113119210442	1
1	3644	136.149656637826	2
1	3648	136.200158302572	2
1	3655	136.314141507121	2
1	3661	136.439922059738	2
1	3668	136.497823451982	2
1	3670	136.549181869076	3
1	3676	136.589936611567	3
1	3683	136.723736758028	3
1	3694	136.952020945985	2
1	3712	137.349930147228	1
1	3722	137.486701016871	1
1	3734	137.808578253451	1
1	3749	138.226685819714	1
1	3784	140.28723150251	1
1	3790	140.481412995694	1
1	3800	140.769484460499	1
1	3816	141.425108590011	1
1	3822	141.703596950029	1
1	3833	141.924438022304	1
1	3847	142.284307716159	1
1	3860	142.976163601548	1
1	3871	143.43029289601	1
1	3874	143.452317540877	1
1	3884	143.78713708802	1
1	3889	143.842297926827	1
1	3903	144.153079173533	1
1	3915	144.519057966246	1
1	3929	144.844166119641	1
1	3937	145.015369799348	1
1	3945	145.168730140463	1
1	3955	145.385898112856	1
1	3972	145.911702403418	1
1	3975	145.951369218435	1
1	3985	146.276122233357	1
1	3990	146.344583283935	1
1	3997	146.474065599203	1
1	4010	146.77343126484	1
1	4016	146.872087039769	1
1	4029	147.152318873337	1
1	4032	147.178195387265	1
1	4043	147.399684185401	1
1	4053	147.549237579479	1
1	4073	148.198636468981	1
1	4076	148.20316243187	1
1	4086	148.327411995742	1
1	4088	148.390794372729	2
1	4104	148.741786642213	1
1	4107	148.763579497282	1
1	4118	148.946227816356	1
1	4125	149.060308965986	1
1	4135	149.286532606468	1
1	4145	149.436409617916	1
1	4168	150.150193412687	1
1	4180	150.463297751634	1
1	4191	150.629273930715	1
1	4206	151.151373565047	1
1	4212	151.382689541052	1
1	4226	151.725750689856	1
1	4229	151.778695874409	1
1	4236	151.839586642215	1
1	4238	151.867040899232	2
1	4264	152.651768746313	1
1	4277	153.059532293669	1
1	4288	153.518566252578	1
1	4299	154.118868602166	1
1	4305	154.35991120333	1
1	4319	154.695540468344	1
1	4330	155.056675521075	1
1	4343	155.849125043908	1
1	4349	156.098422771513	1
1	4363	156.446910875366	1
1	4368	156.511371445995	1
1	4385	157.07524087233	1
1	4394	157.434245798521	1
1	4402	157.591577171432	1
1	4417	159.144501831833	1
1	4420	159.154338385621	1
1	4435	159.669226532446	1
1	4448	160.596634124928	1
1	4451	160.66672474918	1
1	4461	160.956227318515	1
1	4466	161.000877143555	1
1	4487	161.667183124206	1
1	4498	162.599637553511	1
1	4504	162.795856142888	1
1	4519	163.639016205574	1
1	4530	164.073276744928	1
1	4541	164.557340150597	1
1	4552	165.259157401029	1
1	4563	165.75942414737	1
1	4569	165.954374436417	1
1	4572	166.008334789883	1
1	4593	167.337112896323	1
1	4604	167.921968665935	1
1	4613	168.293059700028	1
1	4618	168.367798329877	1
1	4623	168.454950229044	1
1	4627	168.513791199253	1
1	4629	168.521487522525	2
1	4640	168.704430436633	1
1	4654	169.082964683244	1
1	4657	169.083098723747	1
1	4661	169.166518037005	2
1	4687	169.820204815816	1
1	4694	169.929887971281	1
1	4697	169.991383829488	1
1	4718	170.545856470675	1
1	4736	171.016325077237	1
1	4739	171.03784120397	1
1	4751	171.343900525318	1
1	4758	171.489260307147	1
1	4776	172.004042771073	1
1	4784	172.297891429069	1
1	4798	172.618587205772	1
1	4809	172.991119239931	1
1	4822	174.130807719531	1
1	4828	174.370721347353	1
1	4839	174.537908794886	1
1	4849	174.83428652448	1
1	4860	175.074801512504	1
1	4876	176.436367924304	1
1	4882	176.580918417408	1
1	4897	177.080011593872	1
1	4908	177.555210018317	1
1	4919	179.565638030719	1
1	4925	179.690722282531	1
1	4940	180.550944170673	1
1	4951	181.11212983231	1
1	4962	182.042483047561	1
1	4965	182.073937464853	1
1	4967	182.112274339036	2
1	4972	182.206335903862	2
1	4974	182.213276413079	3
1	4983	182.415070313926	2
1	4989	182.513839237856	2
1	4996	182.560993816834	2
1	4998	182.571929033487	3
1	5004	182.651358290497	3
1	5006	182.717705773677	4
1	5036	183.3625004016	1
1	5056	183.97810466792	1
1	5063	184.141171055096	1
1	5093	185.083879739944	1
1	5096	185.170250180928	1
1	5113	185.920956423873	1
1	5124	186.576039373638	1
1	5127	186.581531429353	1
1	5137	186.881323252731	1
1	5144	187.002677060523	1
1	5157	187.354198716183	1
1	5174	187.881161107669	1
1	5185	188.650314652998	1
1	5191	188.883630407402	1
1	5207	189.321697523906	1
1	5218	189.851216572849	1
1	5224	189.959029898447	1
1	5239	191.957436265914	1
1	5242	191.960850776258	1
1	5244	191.992783737842	2
1	5256	192.271844370662	1
1	5259	192.331620721734	1
1	5277	192.761903814883	1
1	5287	192.97699121352	1
1	5305	193.55040467462	1
1	5318	194.752179411352	1
1	5321	194.826215488455	1
1	5323	194.827935928781	2
1	5337	195.179933579357	1
1	5343	195.255067702095	1
1	5366	196.231420401314	1
1	5372	196.424433909541	1
1	5377	196.52896395015	1
1	5397	197.314278951418	1
1	5403	197.435375461003	1
1	5418	197.959071987161	1
1	5424	198.153149048334	1
1	5427	198.245860476015	1
1	5441	198.542210645196	1
1	5446	198.615270682819	1
2	7	0.187956992192	1
2	10	0.287956992192	1
2	25	0.923877783242	1
2	38	1.546807198619	1
2	41	1.646807198619	1
2	49	1.786109576054	1
2	66	2.664089467379	1
2	77	4.02371729734	1
2	88	4.258299226058	1
2	93	4.358299226058	1
2	103	4.622370639911	1
2	113	4.799261120275	1
2	128	5.307475288622	1
2	134	5.460484608913	1
2	147	5.716222168926	1
2	158	5.949593078192	1
2	166	6.07283320139	1
2	183	7.714623570689	1
2	186	7.814623570689	1
2	203	8.365497494041	1
2	206	8.465497494041	1
2	216	8.761860216099	1
2	231	9.231242660967	1
2	242	9.830398490325	1
2	253	10.034154186594	1
2	260	10.134154186594	1
2	263	10.234154186594	1
2	280	10.697625377366	1
2	295	11.439534011982	1
2	300	11.539534011982	1
2	305	11.639534011982	1
2	309	11.739534011982	2
2	321	11.859904295575	2
2	327	11.959904295575	3
2	332	12.059904295575	3
2	354	12.763197046349	1
2	367	13.110040641585	1
2	378	13.369620062536	1
2	391	13.673110127838	1
2	400	13.910249679565	1
2	413	14.230889489591	1
2	424	14.691590093033	1
2	432	14.799740041377	1
2	441	14.899740041377	1
2	447	14.999740041377	2
2	452	15.099740041377	2
2	456	15.199740041377	3
2	471	15.671976096645	2
2	481	15.810872984947	2
2	503	16.438323723274	1
2	506	16.538323723274	1
2	523	17.273113588239	1
2	526	17.373113588239	1
2	541	18.446126306061	1
2	552	19.608934266599	1
2	561	19.897342697141	1
2	576	21.025938695362	1
2	581	21.125938695362	1
2	584	21.225938695362	1
2	605	23.063769197701	1
2	608	23.163769197701	1
2	618	23.299511369809	1
2	622	23.399511369809	2
2	637	23.783830526241	1
2	652	24.205038602396	1
2	663	24.853904493207	1
2	674	25.383077795382	1
2	687	25.71818104735	1
2	690	25.81818104735	1
2	698	26.016189035664	1
2	710	26.317872018513	1
2	722	26.478564915345	1
2	727	26.578564915345	1
2	739	26.890107123509	1
2	752	27.143710581857	1
2	765	27.736516519095	1
2	776	28.093895371567	1
2	787	29.003504773762	1
2	800	30.488282891915	1
2	805	30.588282891915	1