version 3
run BaseVersion-8-20240511-20:48:36-11938
attr configname BaseVersion
attr datetime 20240511-20:48:36
attr datetimef 20240511-204836
attr experiment BaseVersion
attr inifile omnetpp.ini
attr iterationvars $genInterval=0.5
attr iterationvarsd genInterval=0.5
attr iterationvarsf genInterval=0.5-
attr measurement $genInterval=0.5
attr network Network
attr processid 11938
attr repetition 0
attr replication #0
attr resultdir results
attr runnumber 8
attr seedset 8
itervar genInterval 0.5
config network Network
config sim-time-limit 200s
config Network.nodeTx.gen.generationInterval exponential(0.5)
config Network.nodeTx.gen.packetByteSize 12500
config Network.nodeTx.queue.bufferSize 200
config Network.nodeRx.queue.bufferSize 200
config Network.queue.bufferSize 200

vector 0 Network.nodeTx.gen packetGen ETV
vector 1 Network.nodeTx.queue bufferSize ETV
vector 2 Network.queue bufferSize ETV
vector 3 Network.nodeRx.queue bufferSize ETV
vector 4 Network.nodeRx.sink Delay ETV
vector 5 Network.nodeRx.sink packetUsed ETV
0	1	1.033477525325	1
0	4	1.039065857794	1
0	21	2.76859561748	1
0	27	2.905445473251	1
0	42	3.922467516623	1
0	48	4.159486977546	1
0	62	4.537909405024	1
0	75	5.38557422983	1
0	81	5.518031398752	1
0	91	5.79242566381	1
0	94	5.798157797687	1
0	111	6.271575724019	1
0	122	6.553046595708	1
0	138	7.27939815991	1
0	144	7.536774288867	1
0	155	7.793793941382	1
0	169	8.163572431947	1
0	182	9.191781104633	1
0	191	9.517200370488	1
0	204	10.822016395572	1
0	215	11.227257588005	1
0	218	11.30647691584	1
0	230	11.698435375123	1
0	246	12.302974809507	1
0	257	13.018402254362	1
0	263	13.276051201545	1
0	279	13.899099323141	1
0	290	14.751704861739	1
0	301	15.23507875677	1
0	304	15.245834274718	1
0	311	15.523477164458	1
0	324	15.741036387436	1
0	331	15.911630577714	1
0	346	16.240640375117	1
0	362	18.062693612412	1
0	373	19.101678499412	1
0	379	19.304741697822	1
0	382	19.332398056982	1
0	390	19.455860776156	1
0	401	19.61132052575	1
0	404	19.645357382591	1
0	415	19.818113597066	1
0	442	21.851591427399	1
0	453	22.415900594769	1
0	456	22.484300795118	1
0	463	22.663079906348	1
0	473	22.857480367739	1
0	481	22.958356607091	1
0	484	22.995149116029	1
0	497	23.28526233928	1
0	505	23.412560061301	1
0	520	23.791125365414	1
0	532	24.041261873581	1
0	552	25.493330138225	1
0	563	26.625709959686	1
0	572	26.986100486044	1
0	580	27.198013007239	1
0	596	27.757784825573	1
0	607	29.849354394788	1
0	610	29.914242253335	1
0	612	29.928818702948	1
0	619	30.13103023123	1
0	630	30.347719326639	1
0	640	30.508135227503	1
0	650	30.747927022775	1
0	668	31.170313242344	1
0	685	31.892614348869	1
0	696	32.432196720347	1
0	707	33.829032724227	1
0	713	33.994731813961	1
0	721	34.187335015939	1
0	726	34.266590787493	1
0	740	34.549826848239	1
0	743	34.610238986335	1
0	754	34.767694192161	1
0	771	35.314927018171	1
0	787	36.122292698117	1
0	790	36.155231708351	1
0	805	36.663617197238	1
0	816	36.989886523467	1
0	819	37.025468134064	1
0	836	37.548626066619	1
0	849	38.011347907685	1
0	852	38.085604757862	1
0	869	38.879380728197	1
0	880	39.460061739553	1
0	883	39.476327550972	1
0	885	39.493074431683	1
0	897	39.796970188061	1
0	919	40.977111820586	1
0	930	41.757846677262	1
0	936	41.886203810718	1
0	951	44.1231222118	1
0	962	44.545032365903	1
0	973	44.983524761274	1
0	979	45.134927304229	1
0	982	45.154772110685	1
0	986	45.254493075102	1
0	1000	45.550170201837	1
0	1012	45.784538028827	1
0	1020	45.888771736834	1
0	1032	46.210677844505	1
0	1050	46.703840876808	1
0	1058	46.848003214967	1
0	1063	46.969241454969	1
0	1083	47.89560674269	1
0	1086	47.977437183376	1
0	1103	48.911880289769	1
0	1112	49.29597117793	1
0	1125	49.93724064321	1
0	1128	49.990135834313	1
0	1138	50.281854194662	1
0	1155	50.938670715402	1
0	1164	51.336246393841	1
0	1177	52.740052150089	1
0	1188	53.232648695648	1
0	1199	54.667799628758	1
0	1208	55.014109143818	1
0	1216	55.248901806094	1
0	1232	55.917849228287	1
0	1243	56.370710425364	1
0	1252	56.675714095754	1
0	1265	57.218043218478	1
0	1276	57.697585936162	1
0	1285	58.054853528603	1
0	1298	58.60211328103	1
0	1307	58.920395186342	1
0	1315	59.210565210906	1
0	1318	59.215021151484	1
0	1323	59.221769538238	1
0	1325	59.256925197633	1
0	1327	59.270053531499	1
0	1341	59.555355701971	1
0	1352	59.713516115182	1
0	1363	59.995887496408	1
0	1388	60.760352835115	1
0	1395	60.863178847155	1
0	1415	62.293169438321	1
0	1424	62.670367339601	1
0	1429	62.732724017412	1
0	1444	63.189728497519	1
0	1457	63.874267881242	1
0	1468	64.51240428282	1
0	1479	66.430378813193	1
0	1485	66.613305753797	1
0	1500	67.299958591882	1
0	1506	67.55904777354	1
0	1520	67.90121389713	1
0	1533	68.766402415934	1
0	1536	68.828911222637	1
0	1551	69.271222896245	1
0	1564	70.034331311716	1
0	1575	70.647296621967	1
0	1578	70.663850519234	1
0	1588	71.021119945135	1
0	1593	71.077602443154	1
0	1614	71.963762249024	1
0	1620	72.099930769904	1
0	1635	72.737625819076	1
0	1641	72.930736267174	1
0	1656	73.936671380647	1
0	1667	75.265097197959	1
0	1673	75.378804633865	1
0	1683	75.697412916879	1
0	1694	75.874704947432	1
0	1704	76.190360538603	1
0	1718	76.513305365922	1
0	1731	77.35609137061	1
0	1740	77.696310018832	1
0	1748	77.834582293111	1
0	1763	78.302416079647	1
0	1774	78.792527419515	1
0	1785	79.646978618827	1
0	1794	80.022030773524	1
0	1805	80.397126456959	1
0	1818	80.860498703181	1
0	1829	82.260615500055	1
0	1835	82.414780401768	1
0	1850	83.057341849105	1
0	1856	83.340575363599	1
0	1862	83.439043490646	1
0	1876	83.792668167249	1
0	1892	84.276099012985	1
0	1898	84.530975779477	1
0	1914	84.944067567692	1
0	1920	85.113542684526	1
0	1935	85.834244592703	1
0	1946	87.105385372955	1
0	1957	87.927002531138	1
0	1963	88.192385403385	1
0	1974	88.369741840781	1
0	1979	88.487714803186	1
0	1985	88.562188004819	1
0	2008	89.859861250625	1
0	2019	90.364335594956	1
0	2025	90.634142005009	1
0	2028	90.638313548797	1
0	2033	90.713558098811	1
0	2059	91.490520122698	1
0	2062	91.543050279733	1
0	2074	91.891705584955	1
0	2090	93.152693461441	1
0	2101	96.077444422331	1
0	2107	96.254236405427	1
0	2122	98.323091425375	1
0	2133	99.822136311746	1
0	2139	99.95092528643	1
0	2147	100.156692759374	1
0	2164	101.105110408094	1
0	2170	101.34923577632	1
0	2186	102.187071465048	1
0	2197	103.401794750128	1
0	2203	103.536476439025	1
0	2218	104.103028213624	1
0	2229	104.637826816415	1
0	2240	105.389438141279	1
0	2251	107.279300015221	1
0	2262	107.873500410223	1
0	2273	108.531080193699	1
0	2284	109.8834612235	1
0	2287	109.933718675057	1
0	2294	110.177735765246	1
0	2309	110.524915833046	1
0	2315	110.613746090568	1
0	2327	110.924029207433	1
0	2337	111.074091958929	1
0	2340	111.074464044645	1
0	2344	111.15629864873	1
0	2372	113.408460818982	1
0	2383	114.043740014013	1
0	2394	115.0940519202	1
0	2405	115.495549586632	1
0	2411	115.617995730792	1
0	2421	115.908507904122	1
0	2437	116.373420740334	1
0	2448	117.199845239691	1
0	2457	117.519130342572	1
0	2470	117.930578984839	1
0	2476	118.153026860799	1
0	2492	118.675230498261	1
0	2501	119.051989649388	1
0	2509	119.304388584146	1
0	2525	119.720389925583	1
0	2536	120.228257473517	1
0	2547	121.124784646256	1
0	2550	121.191170774755	1
0	2552	121.223607169098	1
0	2564	121.50648267025	1
0	2581	121.972650331325	1
0	2595	122.314467935994	1
0	2606	122.664667387206	1
0	2614	122.935123190549	1
0	2620	123.022477708772	1
0	2632	123.239730985908	1
0	2635	123.318318471678	1
0	2656	123.887560304035	1
0	2669	124.395396078721	1
0	2675	124.592731293143	1
0	2690	125.665121034079	1
0	2696	125.77453659429	1
0	2699	125.791245606883	1
0	2710	126.100489491923	1
0	2723	126.37981678505	1
0	2726	126.460659340925	1
0	2749	127.512088421785	1
0	2760	128.148741839261	1
0	2769	128.472357722726	1
0	2782	128.911417998218	1
0	2788	129.140511292761	1
0	2799	129.421200647221	1
0	2810	129.558847050385	1
0	2813	129.58299766455	1
0	2815	129.607714532002	1
0	2831	130.005088241999	1
0	2836	130.101375277972	1
0	2843	130.169015878664	1
0	2859	130.575855230488	1
0	2874	131.008053649002	1
0	2889	131.385655888385	1
0	2894	131.479064938845	1
0	2906	131.871939164834	1
0	2912	131.898877308511	1
0	2921	132.07653862723	1
0	2934	132.395386190139	1
0	2951	133.398199406438	1
0	2957	133.526424342577	1
0	2972	134.464908341623	1
0	2983	135.301305217269	1
0	2992	135.614704462243	1
0	2995	135.688904655301	1
0	3014	136.38477564172	1
0	3017	136.430157897967	1
0	3034	137.195403510356	1
0	3040	137.473118945121	1
0	3051	137.702628513309	1
0	3067	138.294041399904	1
0	3070	138.391631192878	1
0	3082	138.750077057808	1
0	3093	138.895835435211	1
0	3103	139.221125713436	1
0	3114	139.356434013059	1
0	3122	139.56524114251	1
0	3132	139.813945461261	1
0	3149	141.107286729587	1
0	3152	141.110902979417	1
0	3169	142.324733668911	1
0	3175	142.489604729246	1
0	3190	143.104938442878	1
0	3199	143.490028278301	1
0	3212	144.522515513661	1
0	3218	144.797523413305	1
0	3232	145.19557916363	1
0	3243	145.575037132648	1
0	3256	147.351150748526	1
0	3267	148.024836356393	1
0	3278	148.763495278487	1
0	3289	150.101883246535	1
0	3300	150.510263252053	1
0	3306	150.707523647606	1
0	3321	151.338206899253	1
0	3327	151.495955250923	1
0	3335	151.736101228211	1
0	3350	152.059446730445	1
0	3361	152.390333903874	1
0	3374	152.860646374881	1
0	3385	153.444786242967	1
0	3391	153.548452366825	1
0	3406	154.489248634824	1
0	3409	154.503445988297	1
0	3416	154.71925191234	1
0	3424	154.833325906563	1
0	3446	155.660464962443	1
0	3452	155.801052980947	1
0	3460	155.983558651434	1
0	3472	156.270202302293	1
0	3488	156.942912002013	1
0	3499	157.441295449844	1
0	3505	157.703880583802	1
0	3516	157.883235956942	1
0	3531	159.642148698931	1
0	3542	161.496826749162	1
0	3553	162.099797769794	1
0	3564	163.124344506167	1
0	3567	163.193550634768	1
0	3582	163.67830676886	1
0	3595	165.183312867542	1
0	3601	165.389472445576	1
0	3612	165.666924995165	1
0	3618	165.759928129246	1
0	3630	166.005415615144	1
0	3647	166.544423761422	1
0	3658	169.10165563476	1
0	3669	169.730077146505	1
0	3680	170.248578309524	1
0	3683	170.282771649737	1
0	3685	170.296472798378	1
0	3707	171.042558552299	1
0	3720	171.628962064577	1
0	3731	172.726405370825	1
0	3734	172.759075474068	1
0	3749	173.259215775155	1
0	3757	173.503592910305	1
0	3773	174.111198299338	1
0	3779	174.228363324133	1
0	3794	175.223874386939	1
0	3805	176.258667124217	1
0	3816	177.743932441144	1
0	3827	178.320315133305	1
0	3833	178.537152075157	1
0	3849	179.616726072846	1
0	3852	179.647239381281	1
0	3869	180.309909819993	1
0	3875	180.49613423516	1
0	3890	181.562016850115	1
0	3893	181.655694535044	1
0	3910	182.33632010544	1
0	3916	182.570561492021	1
0	3919	182.591792343214	1
0	3934	182.942352812112	1
0	3951	184.018682458474	1
0	3962	184.800178902887	1
0	3968	184.925762583974	1
0	3983	186.449084857018	1
0	3994	186.898511034265	1
0	4000	187.069630028674	1
0	4015	188.129590549595	1
0	4026	189.648014466595	1
0	4037	190.394666446709	1
0	4043	190.496364036155	1
0	4046	190.5510569506	1
0	4057	190.841020982071	1
0	4060	190.858298657989	1
0	4067	190.959050529456	1
0	4083	191.295111792321	1
0	4090	191.446104373763	1
0	4108	191.95425975025	1
0	4111	191.962938075927	1
0	4134	192.612536072851	1
0	4140	192.753902984727	1
0	4153	193.184994108314	1
0	4161	193.429291302507	1
0	4177	194.817467448832	1
0	4186	195.161217082981	1
0	4194	195.349265239942	1
0	4202	195.530138764415	1
0	4207	195.56709321493	1
0	4209	195.57365663481	1
0	4213	195.638673324099	1
0	4246	196.685849916032	1
0	4257	198.892247388187	1
0	4263	199.026903351378	1
0	4273	199.310596970233	1
0	4282	199.434123962424	1
1	2	1.033477525325	1
1	5	1.039065857794	1
1	22	2.76859561748	1
1	28	2.905445473251	1
1	43	3.922467516623	1
1	49	4.159486977546	1
1	63	4.537909405024	1
1	76	5.38557422983	1
1	82	5.518031398752	1
1	92	5.79242566381	1
1	95	5.798157797687	1
1	112	6.271575724019	1
1	123	6.553046595708	1
1	139	7.27939815991	1
1	145	7.536774288867	1
1	156	7.793793941382	1
1	170	8.163572431947	1
1	183	9.191781104633	1
1	192	9.517200370488	1
1	205	10.822016395572	1
1	216	11.227257588005	1
1	219	11.30647691584	1
1	231	11.698435375123	1
1	247	12.302974809507	1
1	258	13.018402254362	1
1	264	13.276051201545	1
1	280	13.899099323141	1
1	291	14.751704861739	1
1	302	15.23507875677	1
1	305	15.245834274718	1
1	312	15.523477164458	1
1	325	15.741036387436	1
1	332	15.911630577714	1
1	347	16.240640375117	1
1	363	18.062693612412	1
1	374	19.101678499412	1
1	380	19.304741697822	1
1	383	19.332398056982	1
1	391	19.455860776156	1
1	402	19.61132052575	1
1	405	19.645357382591	1
1	416	19.818113597066	1
1	443	21.851591427399	1
1	454	22.415900594769	1
1	457	22.484300795118	1
1	464	22.663079906348	1
1	474	22.857480367739	1
1	482	22.958356607091	1
1	485	22.995149116029	1
1	498	23.28526233928	1
1	506	23.412560061301	1
1	521	23.791125365414	1
1	533	24.041261873581	1
1	553	25.493330138225	1
1	564	26.625709959686	1
1	573	26.986100486044	1
1	581	27.198013007239	1
1	597	27.757784825573	1
1	608	29.849354394788	1
1	611	29.914242253335	1
1	613	29.928818702948	2
1	620	30.13103023123	1
1	631	30.347719326639	1
1	641	30.508135227503	1
1	651	30.747927022775	1
1	669	31.170313242344	1
1	686	31.892614348869	1
1	697	32.432196720347	1
1	708	33.829032724227	1
1	714	33.994731813961	1
1	722	34.187335015939	1
1	727	34.266590787493	1
1	741	34.549826848239	1
1	744	34.610238986335	1
1	755	34.767694192161	1
1	772	35.314927018171	1
1	788	36.122292698117	1
1	791	36.155231708351	1
1	806	36.663617197238	1
1	817	36.989886523467	1
1	820	37.025468134064	1
1	837	37.548626066619	1
1	850	38.011347907685	1
1	853	38.085604757862	1
1	870	38.879380728197	1
1	881	39.460061739553	1
1	884	39.476327550972	1
1	886	39.493074431683	2
1	898	39.796970188061	1
1	920	40.977111820586	1
1	931	41.757846677262	1
1	937	41.886203810718	1
1	952	44.1231222118	1
1	963	44.545032365903	1
1	974	44.983524761274	1
1	980	45.134927304229	1
1	983	45.154772110685	1
1	987	45.254493075102	1
1	1001	45.550170201837	1
1	1013	45.784538028827	1
1	1021	45.888771736834	1
1	1033	46.210677844505	1
1	1051	46.703840876808	1
1	1059	46.848003214967	1
1	1064	46.969241454969	1
1	1084	47.89560674269	1
1	1087	47.977437183376	1
1	1104	48.911880289769	1
1	1113	49.29597117793	1
1	1126	49.93724064321	1
1	1129	49.990135834313	1
1	1139	50.281854194662	1
1	1156	50.938670715402	1
1	1165	51.336246393841	1
1	1178	52.740052150089	1
1	1189	53.232648695648	1
1	1200	54.667799628758	1
1	1209	55.014109143818	1
1	1217	55.248901806094	1
1	1233	55.917849228287	1
1	1244	56.370710425364	1
1	1253	56.675714095754	1
1	1266	57.218043218478	1
1	1277	57.697585936162	1
1	1286	58.054853528603	1
1	1299	58.60211328103	1
1	1308	58.920395186342	1
1	1316	59.210565210906	1
1	1319	59.215021151484	1
1	1324	59.221769538238	2
1	1326	59.256925197633	3
1	1328	59.270053531499	4
1	1342	59.555355701971	2
1	1353	59.713516115182	1
1	1364	59.995887496408	1
1	1389	60.760352835115	1
1	1396	60.863178847155	1
1	1416	62.293169438321	1
1	1425	62.670367339601	1
1	1430	62.732724017412	1
1	1445	63.189728497519	1
1	1458	63.874267881242	1
1	1469	64.51240428282	1
1	1480	66.430378813193	1
1	1486	66.613305753797	1
1	1501	67.299958591882	1
1	1507	67.55904777354	1
1	1521	67.90121389713	1
1	1534	68.766402415934	1
1	1537	68.828911222637	1
1	1552	69.271222896245	1
1	1565	70.034331311716	1
1	1576	70.647296621967	1
1	1579	70.663850519234	1
1	1589	71.021119945135	1
1	1594	71.077602443154	1
1	1615	71.963762249024	1
1	1621	72.099930769904	1
1	1636	72.737625819076	1
1	1642	72.930736267174	1
1	1657	73.936671380647	1
1	1668	75.265097197959	1
1	1674	75.378804633865	1
1	1684	75.697412916879	1
1	1695	75.874704947432	1
1	1705	76.190360538603	1
1	1719	76.513305365922	1
1	1732	77.35609137061	1
1	1741	77.696310018832	1
1	1749	77.834582293111	1
1	1764	78.302416079647	1
1	1775	78.792527419515	1
1	1786	79.646978618827	1
1	1795	80.022030773524	1
1	1806	80.397126456959	1
1	1819	80.860498703181	1
1	1830	82.260615500055	1
1	1836	82.414780401768	1
1	1851	83.057341849105	1
1	1857	83.340575363599	1
1	1863	83.439043490646	1
1	1877	83.792668167249	1
1	1893	84.276099012985	1
1	1899	84.530975779477	1
1	1915	84.944067567692	1
1	1921	85.113542684526	1
1	1936	85.834244592703	1
1	1947	87.105385372955	1
1	1958	87.927002531138	1
1	1964	88.192385403385	1
1	1975	88.369741840781	1
1	1980	88.487714803186	1
1	1986	88.562188004819	1
1	2009	89.859861250625	1
1	2020	90.364335594956	1
1	2026	90.634142005009	1
1	2029	90.638313548797	1
1	2034	90.713558098811	2
1	2060	91.490520122698	1
1	2063	91.543050279733	1
1	2075	91.891705584955	1
1	2091	93.152693461441	1
1	2102	96.077444422331	1
1	2108	96.254236405427	1
1	2123	98.323091425375	1
1	2134	99.822136311746	1
1	2140	99.95092528643	1
1	2148	100.156692759374	1
1	2165	101.105110408094	1
1	2171	101.34923577632	1
1	2187	102.187071465048	1
1	2198	103.401794750128	1
1	2204	103.536476439025	1
1	2219	104.103028213624	1
1	2230	104.637826816415	1
1	2241	105.389438141279	1
1	2252	107.279300015221	1
1	2263	107.873500410223	1
1	2274	108.531080193699	1
1	2285	109.8834612235	1
1	2288	109.933718675057	1
1	2295	110.177735765246	1
1	2310	110.524915833046	1
1	2316	110.613746090568	1
1	2328	110.924029207433	1
1	2338	111.074091958929	1
1	2341	111.074464044645	1
1	2345	111.15629864873	2
1	2373	113.408460818982	1
1	2384	114.043740014013	1
1	2395	115.0940519202	1
1	2406	115.495549586632	1
1	2412	115.617995730792	1
1	2422	115.908507904122	1
1	2438	116.373420740334	1
1	2449	117.199845239691	1
1	2458	117.519130342572	1
1	2471	117.930578984839	1
1	2477	118.153026860799	1
1	2493	118.675230498261	1
1	2502	119.051989649388	1
1	2510	119.304388584146	1
1	2526	119.720389925583	1
1	2537	120.228257473517	1
1	2548	121.124784646256	1
1	2551	121.191170774755	1
1	2553	121.223607169098	2
1	2565	121.50648267025	1
1	2582	121.972650331325	1
1	2596	122.314467935994	1
1	2607	122.664667387206	1
1	2615	122.935123190549	1
1	2621	123.022477708772	1
1	2633	123.239730985908	1
1	2636	123.318318471678	1
1	2657	123.887560304035	1
1	2670	124.395396078721	1
1	2676	124.592731293143	1
1	2691	125.665121034079	1
1	2697	125.77453659429	1
1	2700	125.791245606883	1
1	2711	126.100489491923	1
1	2724	126.37981678505	1
1	2727	126.460659340925	1
1	2750	127.512088421785	1
1	2761	128.148741839261	1
1	2770	128.472357722726	1
1	2783	128.911417998218	1
1	2789	129.140511292761	1
1	2800	129.421200647221	1
1	2811	129.558847050385	1
1	2814	129.58299766455	1
1	2816	129.607714532002	2
1	2832	130.005088241999	1
1	2837	130.101375277972	1
1	2844	130.169015878664	1
1	2860	130.575855230488	1
1	2875	131.008053649002	1
1	2890	131.385655888385	1
1	2895	131.479064938845	1
1	2907	131.871939164834	1
1	2913	131.898877308511	1
1	2922	132.07653862723	1
1	2935	132.395386190139	1
1	2952	133.398199406438	1
1	2958	133.526424342577	1
1	2973	134.464908341623	1
1	2984	135.301305217269	1
1	2993	135.614704462243	1
1	2996	135.688904655301	1
1	3015	136.38477564172	1
1	3018	136.430157897967	1
1	3035	137.195403510356	1
1	3041	137.473118945121	1
1	3052	137.702628513309	1
1	3068	138.294041399904	1
1	3071	138.391631192878	1
1	3083	138.750077057808	1
1	3094	138.895835435211	1
1	3104	139.221125713436	1
1	3115	139.356434013059	1
1	3123	139.56524114251	1
1	3133	139.813945461261	1
1	3150	141.107286729587	1
1	3153	141.110902979417	1
1	3170	142.324733668911	1
1	3176	142.489604729246	1
1	3191	143.104938442878	1
1	3200	143.490028278301	1
1	3213	144.522515513661	1
1	3219	144.797523413305	1
1	3233	145.19557916363	1
1	3244	145.575037132648	1
1	3257	147.351150748526	1
1	3268	148.024836356393	1
1	3279	148.763495278487	1
1	3290	150.101883246535	1
1	3301	150.510263252053	1
1	3307	150.707523647606	1
1	3322	151.338206899253	1
1	3328	151.495955250923	1
1	3336	151.736101228211	1
1	3351	152.059446730445	1
1	3362	152.390333903874	1
1	3375	152.860646374881	1
1	3386	153.444786242967	1
1	3392	153.548452366825	1
1	3407	154.489248634824	1
1	3410	154.503445988297	1
1	3417	154.71925191234	1
1	3425	154.833325906563	1
1	3447	155.660464962443	1
1	3453	155.801052980947	1
1	3461	155.983558651434	1
1	3473	156.270202302293	1
1	3489	156.942912002013	1
1	3500	157.441295449844	1
1	3506	157.703880583802	1
1	3517	157.883235956942	1
1	3532	159.642148698931	1
1	3543	161.496826749162	1
1	3554	162.099797769794	1
1	3565	163.124344506167	1
1	3568	163.193550634768	1
1	3583	163.67830676886	1
1	3596	165.183312867542	1
1	3602	165.389472445576	1
1	3613	165.666924995165	1
1	3619	165.759928129246	1
1	3631	166.005415615144	1
1	3648	166.544423761422	1
1	3659	169.10165563476	1
1	3670	169.730077146505	1
1	3681	170.248578309524	1
1	3684	170.282771649737	1
1	3686	170.296472798378	2
1	3708	171.042558552299	1
1	3721	171.628962064577	1
1	3732	172.726405370825	1
1	3735	172.759075474068	1
1	3750	173.259215775155	1
1	3758	173.503592910305	1
1	3774	174.111198299338	1
1	3780	174.228363324133	1
1	3795	175.223874386939	1
1	3806	176.258667124217	1
1	3817	177.743932441144	1
1	3828	178.320315133305	1
1	3834	178.537152075157	1
1	3850	179.616726072846	1
1	3853	179.647239381281	1
1	3870	180.309909819993	1
1	3876	180.49613423516	1
1	3891	181.562016850115	1
1	3894	181.655694535044	1
1	3911	182.33632010544	1
1	3917	182.570561492021	1
1	3920	182.591792343214	1
1	3935	182.942352812112	1
1	3952	184.018682458474	1
1	3963	184.800178902887	1
1	3969	184.925762583974	1
1	3984	186.449084857018	1
1	3995	186.898511034265	1
1	4001	187.069630028674	1
1	4016	188.129590549595	1
1	4027	189.648014466595	1
1	4038	190.394666446709	1
1	4044	190.496364036155	1
1	4047	190.5510569506	1
1	4058	190.841020982071	1
1	4061	190.858298657989	1
1	4068	190.959050529456	1
1	4084	191.295111792321	1
1	4091	191.446104373763	1
1	4109	191.95425975025	1
1	4112	191.962938075927	1
1	4135	192.612536072851	1
1	4141	192.753902984727	1
1	4154	193.184994108314	1
1	4162	193.429291302507	1
1	4178	194.817467448832	1
1	4187	195.161217082981	1
1	4195	195.349265239942	1
1	4203	195.530138764415	1
1	4208	195.56709321493	1
1	4210	195.57365663481	2
1	4214	195.638673324099	2
1	4247	196.685849916032	1
1	4258	198.892247388187	1
1	4264	199.026903351378	1
1	4274	199.310596970233	1
1	4283	199.434123962424	1
2	7	1.133577525325	1
2	10	1.233577525325	1
2	25	2.86869561748	1
2	31	3.005545473251	1
2	46	4.022567516623	1
2	55	4.259586977546	1
2	68	4.638009405024	1
2	79	5.48567422983	1
2	85	5.618131398752	1
2	100	5.89252566381	1
2	105	5.99252566381	1
2	118	6.371675724019	1
2	129	6.653146595708	1
2	142	7.37949815991	1
2	151	7.636874288867	1
2	162	7.893893941382	1
2	175	8.263672431947	1
2	186	9.291881104633	1
2	197	9.617300370488	1
2	208	10.922116395572	1
2	221	11.327357588005	1
2	224	11.427357588005	1
2	237	11.798535375123	1
2	250	12.403074809507	1
2	261	13.118502254362	1
2	270	13.376151201545	1
2	283	13.999199323141	1
2	294	14.851804861739	1
2	307	15.33517875677	1
2	310	15.43517875677	1
2	318	15.623577164458	1
2	330	15.841136387436	1
2	338	16.011730577714	1
2	353	16.340740375117	1
2	366	18.162793612412	1
2	377	19.201778499412	1
2	388	19.404841697822	1
2	395	19.504841697822	1
2	398	19.604841697822	1
2	409	19.71142052575	2
2	414	19.81142052575	2
2	421	19.918213597066	3
2	446	21.951691427399	1
2	459	22.516000594769	1
2	462	22.616000594769	1
2	470	22.763179906348	1
2	480	22.957580367739	1
2	489	23.058456607091	2
2	494	23.158456607091	2
2	504	23.38536233928	2
2	511	23.512660061301	3
2	526	23.891225365414	2
2	539	24.141361873581	1
2	556	25.593430138225	1
2	567	26.725809959686	1
2	578	27.086200486044	1
2	587	27.298113007239	1
2	600	27.857884825573	1
2	615	29.949454394788	1
2	618	30.049454394788	1
2	623	30.149454394788	1
2	627	30.249454394788	2
2	637	30.447819326639	2
2	647	30.608235227503	2
2	657	30.848027022775	2
2	674	31.270413242344	1
2	689	31.992714348869	1
2	700	32.532296720347	1
2	711	33.929132724227	1
2	717	34.094831813961	1
2	729	34.287435015939	1
2	734	34.387435015939	1
2	748	34.649926848239	1
2	753	34.749926848239	1
2	760	34.867794192161	2
2	778	35.415027018171	1
2	793	36.222392698117	1
2	796	36.322392698117	1
2	811	36.763717197238	1
2	824	37.089986523467	1
2	827	37.189986523467	1
2	842	37.648726066619	1
2	855	38.111447907685	1
2	858	38.211447907685	1
2	873	38.979480728197	1
2	888	39.560161739553	1
2	891	39.660161739553	1
2	894	39.760161739553	1
2	903	39.897070188061	2
2	923	41.077211820586	1
2	934	41.857946677262	1
2	940	41.986303810718	1
2	955	44.2232222118	1
2	966	44.645132365903	1
2	977	45.083624761274	1
2	985	45.235027304229	1
2	992	45.335027304229	1
2	996	45.435027304229	2
2	1006	45.650270201837	2
2	1019	45.884638028827	1
2	1026	45.988871736834	2
2	1039	46.310777844505	1
2	1056	46.803940876808	1
2	1062	46.948103214967	1
2	1070	47.069341454969	1
2	1089	47.99570674269	1
2	1092	48.09570674269	1
2	1107	49.011980289769	1
2	1118	49.39607117793	1
2	1131	50.03734064321	1
2	1134	50.13734064321	1
2	1144	50.381954194662	1
2	1159	51.038770715402	1
2	1170	51.436346393841	1
2	1181	52.840152150089	1
2	1192	53.332748695648	1
2	1203	54.767899628758	1
2	1214	55.114209143818	1
2	1223	55.349001806094	1
2	1236	56.017949228287	1
2	1247	56.470810425364	1
2	1258	56.775814095754	1
2	1269	57.318143218478	1
2	1280	57.797685936162	1
2	1291	58.154953528603	1
2	1302	58.70221328103	1
2	1313	59.020495186342	1
2	1330	59.310665210906	1
2	1335	59.410665210906	1
2	1338	59.510665210906	1
2	1344	59.610665210906	2
2	1349	59.710665210906	2
2	1355	59.810665210906	3
2	1360	59.910665210906	3
2	1369	60.095987496408	4
2	1394	60.860452835115	1
2	1402	60.963278847155	1
2	1419	62.393269438321	1
2	1432	62.770467339601	1
2	1435	62.870467339601	1
2	1450	63.289828497519	1
2	1461	63.974367881242	1
2	1472	64.61250428282	1
2	1483	66.530478813193	1
2	1489	66.713405753797	1
2	1504	67.400058591882	1
2	1513	67.65914777354	1
2	1526	68.00131389713	1
2	1539	68.866502415934	1
2	1542	68.966502415934	1
2	1557	69.371322896245	1
2	1568	70.134431311716	1
2	1581	70.747396621967	1
2	1584	70.847396621967	1
2	1596	71.121219945135	1
2	1601	71.221219945135	1
2	1618	72.063862249024	1
2	1624	72.200030769904	1
2	1639	72.837725819076	1
2	1645	73.030836267174	1
2	1660	74.036771380647	1
2	1671	75.365197197959	1
2	1677	75.478904633865	1
2	1690	75.797512916879	1
2	1698	75.974804947432	1
2	1711	76.290460538603	1
2	1724	76.613405365922	1
2	1735	77.45619137061	1
2	1746	77.796410018832	1
2	1752	77.934682293111	1
2	1767	78.402516079647	1
2	1778	78.892627419515	1
2	1789	79.747078618827	1
2	1800	80.122130773524	1
2	1811	80.497226456959	1
2	1822	80.960598703181	1
2	1833	82.360715500055	1
2	1839	82.514880401768	1
2	1854	83.157441849105	1
2	1865	83.440675363599	1
2	1870	83.540675363599	1
2	1883	83.892768167249	1
2	1896	84.376199012985	1
2	1905	84.631075779477	1
2	1918	85.044167567692	1
2	1924	85.213642684526	1
2	1939	85.934344592703	1
2	1950	87.205485372955	1
2	1961	88.027102531138	1
2	1970	88.292485403385	1
2	1978	88.469841840781	1
2	1988	88.587814803186	1
2	1992	88.687814803186	2
2	2012	89.959961250625	1
2	2023	90.464435594956	1
2	2036	90.734242005009	1
2	2041	90.834242005009	1
2	2044	90.934242005009	1
2	2065	91.590620122698	1
2	2068	91.690620122698	1
2	2081	91.991805584955	1
2	2094	93.252793461441	1
2	2105	96.177544422331	1
2	2111	96.354336405427	1
2	2126	98.423191425375	1
2	2137	99.922236311746	1
2	2143	100.05102528643	1
2	2153	100.256792759374	1
2	2168	101.205210408094	1
2	2177	101.44933577632	1
2	2190	102.287171465048	1
2	2201	103.501894750128	1
2	2207	103.636576439025	1
2	2222	104.203128213624	1
2	2233	104.737926816415	1
2	2244	105.489538141279	1
2	2255	107.379400015221	1
2	2266	107.973600410223	1
2	2277	108.631180193699	1
2	2290	109.9835612235	1
2	2293	110.0835612235	1
2	2301	110.277835765246	1
2	2318	110.625015833046	1
2	2323	110.725015833046	1
2	2333	111.024129207433	1
2	2347	111.174191958929	1
2	2352	111.274191958929	1
2	2356	111.374191958929	2
2	2376	113.508560818982	1
2	2387	114.143840014013	1
2	2398	115.1941519202	1
2	2409	115.595649586632	1
2	2415	115.718095730792	1
2	2428	116.008607904122	1
2	2441	116.473520740334	1
2	2452	117.299945239691	1
2	2463	117.619230342572	1
2	2474	118.030678984839	1
2	2483	118.253126860799	1
2	2496	118.775330498261	1
2	2507	119.152089649388	1
2	2516	119.404488584146	1
2	2529	119.820489925583	1
2	2540	120.328357473517	1
2	2555	121.224884646256	1
2	2558	121.324884646256	1
2	2561	121.424884646256	1
2	2570	121.60658267025	2
2	2588	122.072750331325	1
2	2601	122.414567935994	1
2	2612	122.764767387206	1
2	2623	123.035223190549	1
2	2628	123.135223190549	1
2	2640	123.339830985908	1
2	2645	123.439830985908	1
2	2662	123.987660304035	1
2	2673	124.495496078721	1
2	2679	124.692831293143	1
2	2694	125.765221034079	1
2	2702	125.87463659429	1
2	2707	125.97463659429	1
2	2717	126.200589491923	1
2	2731	126.47991678505	1
2	2736	126.57991678505	1
2	2753	127.612188421785	1
2	2764	128.248841839261	1
2	2775	128.572457722726	1
2	2786	129.011517998218	1
2	2795	129.240611292761	1
2	2806	129.521300647221	1
2	2818	129.658947050385	1
2	2823	129.758947050385	1
2	2827	129.858947050385	2
2	2839	130.105188241999	2
2	2846	130.205188241999	2
2	2850	130.305188241999	3
2	2865	130.675955230488	2
2	2880	131.108153649002	1
2	2897	131.485755888385	1
2	2900	131.585755888385	1
2	2915	131.972039164834	1
2	2920	132.072039164834	1
2	2928	132.17663862723	1
2	2940	132.495486190139	1
2	2955	133.498299406438	1
2	2961	133.626524342577	1
2	2976	134.565008341623	1
2	2987	135.401405217269	1
2	3000	135.714804462243	1
2	3003	135.814804462243	1
2	3020	136.48487564172	1
2	3023	136.58487564172	1
2	3038	137.295503510356	1
2	3047	137.573218945121	1
2	3058	137.802728513309	1
2	3073	138.394141399904	1
2	3076	138.494141399904	1
2	3089	138.850177057808	1
2	3097	138.995935435211	1
2	3110	139.321225713436	1
2	3118	139.456534013059	1
2	3128	139.66534114251	1
2	3138	139.914045461261	1
2	3155	141.207386729587	1
2	3158	141.307386729587	1
2	3173	142.424833668911	1
2	3179	142.589704729246	1
2	3194	143.205038442878	1
2	3205	143.590128278301	1
2	3216	144.622615513661	1
2	3225	144.897623413305	1
2	3238	145.29567916363	1
2	3249	145.675137132648	1
2	3260	147.451250748526	1
2	3271	148.124936356393	1
2	3282	148.863595278487	1
2	3293	150.201983246535	1
2	3304	150.610363252053	1
2	3310	150.807623647606	1
2	3325	151.438306899253	1
2	3331	151.596055250923	1
2	3341	151.836201228211	1
2	3356	152.159546730445	1
2	3367	152.490433903874	1
2	3378	152.960746374881	1
2	3389	153.544886242967	1
2	3395	153.648552366825	1
2	3412	154.589348634824	1
2	3415	154.689348634824	1
2	3423	154.81935191234	1
2	3430	154.933425906563	2