version 3
run BaseVersion-18-20240511-20:48:36-11938
attr configname BaseVersion
attr datetime 20240511-20:48:36
attr datetimef 20240511-204836
attr experiment BaseVersion
attr inifile omnetpp.ini
attr iterationvars $genInterval=1
attr iterationvarsd genInterval=1
attr iterationvarsf genInterval=1-
attr measurement $genInterval=1
attr network Network
attr processid 11938
attr repetition 0
attr replication #0
attr resultdir results
attr runnumber 18
attr seedset 18
itervar genInterval 1
config network Network
config sim-time-limit 200s
config Network.nodeTx.gen.generationInterval exponential(1)
config Network.nodeTx.gen.packetByteSize 12500
config Network.nodeTx.queue.bufferSize 200
config Network.nodeRx.queue.bufferSize 200
config Network.queue.bufferSize 200

vector 0 Network.nodeTx.gen packetGen ETV
vector 1 Network.nodeTx.queue bufferSize ETV
vector 2 Network.queue bufferSize ETV
vector 3 Network.nodeRx.queue bufferSize ETV
vector 4 Network.nodeRx.sink Delay ETV
vector 5 Network.nodeRx.sink packetUsed ETV
0	1	1.05089196372	1
0	4	1.129946824883	1
0	21	1.834060672312	1
0	32	2.400796351696	1
0	43	4.509472910977	1
0	49	4.789912975802	1
0	60	4.99061060946	1
0	76	7.380665215926	1
0	87	9.292784243635	1
0	93	9.520905665386	1
0	109	10.907745341596	1
0	112	10.919318785571	1
0	129	12.016237513911	1
0	140	12.572917699836	1
0	151	16.987091475029	1
0	162	17.829066270616	1
0	168	18.126083006804	1
0	184	20.020738919878	1
0	187	20.049453176764	1
0	204	23.913280791288	1
0	215	24.923110846198	1
0	224	25.31370505773	1
0	237	27.193066271011	1
0	248	28.002097163697	1
0	259	29.334565003912	1
0	270	30.236762260166	1
0	273	30.25778889083	1
0	283	30.598327007211	1
0	290	30.716663713572	1
0	310	31.726023680856	1
0	319	32.079452102603	1
0	327	32.30704555372	1
0	343	33.468502409031	1
0	352	33.804477515397	1
0	365	35.782273048443	1
0	376	36.755509127746	1
0	382	36.976947082072	1
0	398	37.475157633821	1
0	409	38.545733715142	1
0	420	39.355534662889	1
0	431	40.558360206701	1
0	442	42.919951818346	1
0	453	43.354422243728	1
0	464	44.090454208667	1
0	475	45.6509141026	1
0	486	48.443672719274	1
0	497	50.125939078819	1
0	508	51.462129301926	1
0	514	51.682054641279	1
0	528	51.989555710124	1
0	541	54.974452847391	1
0	552	55.527066809948	1
0	563	56.174476836262	1
0	574	59.711096794168	1
0	585	60.809510150004	1
0	591	61.020348364593	1
0	602	61.257732887128	1
0	618	62.031947645686	1
0	629	63.679743538941	1
0	640	64.347747924333	1
0	649	64.732948923277	1
0	662	66.221730999114	1
0	671	66.569780350906	1
0	684	67.780239262378	1
0	693	68.139658213441	1
0	706	70.011216687684	1
0	717	71.770834688527	1
0	728	72.561489408463	1
0	739	73.36564344243	1
0	750	73.813811850777	1
0	756	74.02660589396	1
0	772	75.63104391856	1
0	783	76.883705468958	1
0	794	79.783913458822	1
0	805	80.805204640749	1
0	816	81.627886013298	1
0	827	82.389748600215	1
0	838	84.020610131802	1
0	849	84.870476415719	1
0	860	86.249443825601	1
0	863	86.261853041501	1
0	868	86.43791318381	1
0	889	87.626137227803	1
0	900	89.646092670997	1
0	911	90.41107793087	1
0	922	91.046337717632	1
0	925	91.12877924144	1
0	942	94.340243115657	1
0	945	94.353974463022	1
0	962	95.046512812446	1
0	971	95.372039422417	1
0	984	96.770263553741	1
0	995	102.716862517922	1
0	1006	103.526670252603	1
0	1012	103.782337826953	1
0	1018	103.845739109292	1
0	1025	103.956687827273	1
0	1029	104.077469197049	1
0	1036	104.093904295964	1
0	1057	104.757477180287	1
0	1072	105.175461506587	1
0	1085	105.809894776097	1
0	1096	107.46118677629	1
0	1102	107.707230436757	1
0	1113	107.952261311635	1
0	1116	107.98853150051	1
0	1138	110.715840504168	1
0	1149	111.168743411128	1
0	1160	115.633967045261	1
0	1163	115.691004413694	1
0	1165	115.702082237473	1
0	1189	117.101955663197	1
0	1200	118.638620712614	1
0	1211	119.041894806744	1
0	1222	120.198232446773	1
0	1233	121.671653977334	1
0	1244	122.396589054722	1
0	1255	123.051909689827	1
0	1264	123.365406339528	1
0	1277	123.765920986073	1
0	1288	124.858893608768	1
0	1299	125.843615126018	1
0	1310	127.344756876037	1
0	1321	127.902615222211	1
0	1332	128.548241053261	1
0	1338	128.837336904341	1
0	1354	133.242529146249	1
0	1360	133.388248659635	1
0	1375	134.073914664863	1
0	1386	135.505951099574	1
0	1397	136.619236775831	1
0	1408	139.115989602433	1
0	1419	139.678563503964	1
0	1425	139.896620003306	1
0	1439	140.199047238658	1
0	1452	141.377184886793	1
0	1463	144.263101156488	1
0	1474	144.930806410164	1
0	1485	146.092778086181	1
0	1488	146.108247832852	1
0	1505	147.186044470814	1
0	1516	147.80592894933	1
0	1519	147.841938462766	1
0	1536	148.561014463187	1
0	1547	150.927591706651	1
0	1553	151.173857125252	1
0	1569	151.716423397053	1
0	1580	152.804756679212	1
0	1591	153.450912444931	1
0	1602	154.346968127436	1
0	1608	154.492726785898	1
0	1623	155.190032337814	1
0	1634	155.639830064625	1
0	1645	157.366412326464	1
0	1654	157.761180377272	1
0	1662	157.997819444363	1
0	1671	158.158009136515	1
0	1683	158.436411887727	1
0	1699	160.025487031257	1
0	1710	163.536283405653	1
0	1721	164.277029902292	1
0	1732	165.349501967665	1
0	1743	167.595463976644	1
0	1754	168.770903967482	1
0	1765	170.352803179675	1
0	1776	174.79934584492	1
0	1787	175.791851357519	1
0	1798	177.155918947328	1
0	1801	177.225405142621	1
0	1818	178.065745602036	1
0	1829	179.613477203704	1
0	1840	180.27620130825	1
0	1851	180.752506389268	1
0	1860	181.099009454215	1
0	1873	181.735062724347	1
0	1884	182.411467892481	1
0	1887	182.493872449384	1
0	1904	183.407187954143	1
0	1910	183.573734339626	1
0	1925	186.042575651492	1
0	1936	186.516080115342	1
0	1942	186.703358330625	1
0	1957	187.136071454889	1
0	1968	187.665925582513	1
0	1971	187.714596103488	1
0	1988	190.342115062562	1
0	1994	190.61303859618	1
0	2008	190.977083673129	1
0	2016	191.195793251101	1
0	2032	191.823806392366	1
0	2043	192.312300956192	1
0	2054	193.005290466026	1
0	2065	194.799798475917	1
0	2076	196.323470218992	1
0	2087	197.814886398965	1
0	2090	197.82522596454	1
0	2107	199.452493043558	1
1	2	1.05089196372	1
1	5	1.129946824883	1
1	22	1.834060672312	1
1	33	2.400796351696	1
1	44	4.509472910977	1
1	50	4.789912975802	1
1	61	4.99061060946	1
1	77	7.380665215926	1
1	88	9.292784243635	1
1	94	9.520905665386	1
1	110	10.907745341596	1
1	113	10.919318785571	1
1	130	12.016237513911	1
1	141	12.572917699836	1
1	152	16.987091475029	1
1	163	17.829066270616	1
1	169	18.126083006804	1
1	185	20.020738919878	1
1	188	20.049453176764	1
1	205	23.913280791288	1
1	216	24.923110846198	1
1	225	25.31370505773	1
1	238	27.193066271011	1
1	249	28.002097163697	1
1	260	29.334565003912	1
1	271	30.236762260166	1
1	274	30.25778889083	1
1	284	30.598327007211	1
1	291	30.716663713572	1
1	311	31.726023680856	1
1	320	32.079452102603	1
1	328	32.30704555372	1
1	344	33.468502409031	1
1	353	33.804477515397	1
1	366	35.782273048443	1
1	377	36.755509127746	1
1	383	36.976947082072	1
1	399	37.475157633821	1
1	410	38.545733715142	1
1	421	39.355534662889	1
1	432	40.558360206701	1
1	443	42.919951818346	1
1	454	43.354422243728	1
1	465	44.090454208667	1
1	476	45.6509141026	1
1	487	48.443672719274	1
1	498	50.125939078819	1
1	509	51.462129301926	1
1	515	51.682054641279	1
1	529	51.989555710124	1
1	542	54.974452847391	1
1	553	55.527066809948	1
1	564	56.174476836262	1
1	575	59.711096794168	1
1	586	60.809510150004	1
1	592	61.020348364593	1
1	603	61.257732887128	1
1	619	62.031947645686	1
1	630	63.679743538941	1
1	641	64.347747924333	1
1	650	64.732948923277	1
1	663	66.221730999114	1
1	672	66.569780350906	1
1	685	67.780239262378	1
1	694	68.139658213441	1
1	707	70.011216687684	1
1	718	71.770834688527	1
1	729	72.561489408463	1
1	740	73.36564344243	1
1	751	73.813811850777	1
1	757	74.02660589396	1
1	773	75.63104391856	1
1	784	76.883705468958	1
1	795	79.783913458822	1
1	806	80.805204640749	1
1	817	81.627886013298	1
1	828	82.389748600215	1
1	839	84.020610131802	1
1	850	84.870476415719	1
1	861	86.249443825601	1
1	864	86.261853041501	1
1	869	86.43791318381	1
1	890	87.626137227803	1
1	901	89.646092670997	1
1	912	90.41107793087	1
1	923	91.046337717632	1
1	926	91.12877924144	1
1	943	94.340243115657	1
1	946	94.353974463022	1
1	963	95.046512812446	1
1	972	95.372039422417	1
1	985	96.770263553741	1
1	996	102.716862517922	1
1	1007	103.526670252603	1
1	1013	103.782337826953	1
1	1019	103.845739109292	1
1	1026	103.956687827273	1
1	1030	104.077469197049	1
1	1037	104.093904295964	1
1	1058	104.757477180287	1
1	1073	105.175461506587	1
1	1086	105.809894776097	1
1	1097	107.46118677629	1
1	1103	107.707230436757	1
1	1114	107.952261311635	1
1	1117	107.98853150051	1
1	1139	110.715840504168	1
1	1150	111.168743411128	1
1	1161	115.633967045261	1
1	1164	115.691004413694	1
1	1166	115.702082237473	2
1	1190	117.101955663197	1
1	1201	118.638620712614	1
1	1212	119.041894806744	1
1	1223	120.198232446773	1
1	1234	121.671653977334	1
1	1245	122.396589054722	1
1	1256	123.051909689827	1
1	1265	123.365406339528	1
1	1278	123.765920986073	1
1	1289	124.858893608768	1
1	1300	125.843615126018	1
1	1311	127.344756876037	1
1	1322	127.902615222211	1
1	1333	128.548241053261	1
1	1339	128.837336904341	1
1	1355	133.242529146249	1
1	1361	133.388248659635	1
1	1376	134.073914664863	1
1	1387	135.505951099574	1
1	1398	136.619236775831	1
1	1409	139.115989602433	1
1	1420	139.678563503964	1
1	1426	139.896620003306	1
1	1440	140.199047238658	1
1	1453	141.377184886793	1
1	1464	144.263101156488	1
1	1475	144.930806410164	1
1	1486	146.092778086181	1
1	1489	146.108247832852	1
1	1506	147.186044470814	1
1	1517	147.80592894933	1
1	1520	147.841938462766	1
1	1537	148.561014463187	1
1	1548	150.927591706651	1
1	1554	151.173857125252	1
1	1570	151.716423397053	1
1	1581	152.804756679212	1
1	1592	153.450912444931	1
1	1603	154.346968127436	1
1	1609	154.492726785898	1
1	1624	155.190032337814	1
1	1635	155.639830064625	1
1	1646	157.366412326464	1
1	1655	157.761180377272	1
1	1663	157.997819444363	1
1	1672	158.158009136515	1
1	1684	158.436411887727	1
1	1700	160.025487031257	1
1	1711	163.536283405653	1
1	1722	164.277029902292	1
1	1733	165.349501967665	1
1	1744	167.595463976644	1
1	1755	168.770903967482	1
1	1766	170.352803179675	1
1	1777	174.79934584492	1
1	1788	175.791851357519	1
1	1799	177.155918947328	1
1	1802	177.225405142621	1
1	1819	178.065745602036	1
1	1830	179.613477203704	1
1	1841	180.27620130825	1
1	1852	180.752506389268	1
1	1861	181.099009454215	1
1	1874	181.735062724347	1
1	1885	182.411467892481	1
1	1888	182.493872449384	1
1	1905	183.407187954143	1
1	1911	183.573734339626	1
1	1926	186.042575651492	1
1	1937	186.516080115342	1
1	1943	186.703358330625	1
1	1958	187.136071454889	1
1	1969	187.665925582513	1
1	1972	187.714596103488	1
1	1989	190.342115062562	1
1	1995	190.61303859618	1
1	2009	190.977083673129	1
1	2017	191.195793251101	1
1	2033	191.823806392366	1
1	2044	192.312300956192	1
1	2055	193.005290466026	1
1	2066	194.799798475917	1
1	2077	196.323470218992	1
1	2088	197.814886398965	1
1	2091	197.82522596454	1
1	2108	199.452493043558	1
2	7	1.15099196372	1
2	10	1.25099196372	1
2	25	1.934160672312	1
2	36	2.500896351696	1
2	47	4.609572910977	1
2	56	4.890012975802	1
2	67	5.09071060946	1
2	80	7.480765215926	1
2	91	9.392884243635	1
2	100	9.621005665386	1
2	115	11.007845341596	1
2	118	11.107845341596	1
2	133	12.116337513911	1
2	144	12.673017699836	1
2	155	17.087191475029	1
2	166	17.929166270616	1
2	175	18.226183006804	1
2	190	20.120838919878	1
2	193	20.220838919878	1
2	208	24.013380791288	1
2	219	25.023210846198	1
2	230	25.41380505773	1
2	241	27.293166271011	1
2	252	28.102197163697	1
2	263	29.434665003912	1
2	276	30.336862260166	1
2	279	30.436862260166	1
2	289	30.698427007211	1
2	297	30.816763713572	1
2	314	31.826123680856	1
2	325	32.179552102603	1
2	334	32.40714555372	1
2	347	33.568602409031	1
2	358	33.904577515397	1
2	369	35.882373048443	1
2	380	36.855609127746	1
2	389	37.077047082072	1
2	402	37.575257633821	1
2	413	38.645833715142	1
2	424	39.455634662889	1
2	435	40.658460206701	1
2	446	43.020051818346	1
2	457	43.454522243728	1
2	468	44.190554208667	1
2	479	45.7510141026	1
2	490	48.543772719274	1
2	501	50.226039078819	1
2	512	51.562229301926	1
2	521	51.782154641279	1
2	534	52.089655710124	1
2	545	55.074552847391	1
2	556	55.627166809948	1
2	567	56.274576836262	1
2	578	59.811196794168	1
2	589	60.909610150004	1
2	598	61.120448364593	1
2	609	61.357832887128	1
2	622	62.132047645686	1
2	633	63.779843538941	1
2	644	64.447847924333	1
2	655	64.833048923277	1
2	666	66.321830999114	1
2	677	66.669880350906	1
2	688	67.880339262378	1
2	699	68.239758213441	1
2	710	70.111316687684	1
2	721	71.870934688527	1
2	732	72.661589408463	1
2	743	73.46574344243	1
2	754	73.913911850777	1
2	763	74.12670589396	1
2	776	75.73114391856	1
2	787	76.983805468958	1
2	798	79.884013458822	1
2	809	80.905304640749	1
2	820	81.727986013298	1
2	831	82.489848600215	1
2	842	84.120710131802	1
2	853	84.970576415719	1
2	866	86.349543825601	1
2	871	86.449543825601	1
2	874	86.549543825601	1
2	893	87.726237227803	1
2	904	89.746192670997	1
2	915	90.51117793087	1
2	928	91.146437717632	1
2	931	91.246437717632	1
2	948	94.440343115657	1
2	951	94.540343115657	1
2	966	95.146612812446	1
2	977	95.472139422417	1
2	988	96.870363553741	1
2	999	102.816962517922	1
2	1010	103.626770252603	1
2	1021	103.882437826953	1
2	1028	103.982437826953	1
2	1033	104.082437826953	1
2	1039	104.182437826953	2
2	1044	104.282437826953	2
2	1063	104.857577180287	1
2	1078	105.275561506587	1
2	1089	105.909994776097	1
2	1100	107.56128677629	1
2	1109	107.807330436757	1
2	1122	108.052361311635	1
2	1127	108.152361311635	1
2	1142	110.815940504168	1
2	1153	111.268843411128	1
2	1168	115.734067045261	1
2	1171	115.834067045261	1
2	1174	115.934067045261	1
2	1193	117.202055663197	1
2	1204	118.738720712614	1
2	1215	119.141994806744	1
2	1226	120.298332446773	1
2	1237	121.771753977334	1
2	1248	122.496689054722	1
2	1259	123.152009689827	1
2	1270	123.465506339528	1
2	1281	123.866020986073	1
2	1292	124.958993608768	1
2	1303	125.943715126018	1
2	1314	127.444856876037	1
2	1325	128.002715222211	1
2	1336	128.648341053261	1
2	1345	128.937436904341	1
2	1358	133.342629146249	1
2	1364	133.488348659635	1
2	1379	134.174014664863	1
2	1390	135.606051099574	1
2	1401	136.719336775831	1
2	1412	139.216089602433	1
2	1423	139.778663503964	1
2	1432	139.996720003306	1
2	1445	140.299147238658	1
2	1456	141.477284886793	1
2	1467	144.363201156488	1
2	1478	145.030906410164	1
2	1491	146.192878086181	1
2	1494	146.292878086181	1
2	1509	147.286144470814	1
2	1522	147.90602894933	1
2	1525	148.00602894933	1
2	1540	148.661114463187	1
2	1551	151.027691706651	1
2	1560	151.273957125252	1
2	1573	151.816523397053	1
2	1584	152.904856679212	1
2	1595	153.551012444931	1
2	1606	154.447068127436	1
2	1612	154.592826785898	1
2	1627	155.290132337814	1
2	1638	155.739930064625	1
2	1649	157.466512326464	1
2	1660	157.861280377272	1
2	1669	158.097919444363	1
2	1677	158.258109136515	1
2	1690	158.536511887727	1
2	1703	160.125587031257	1
2	1714	163.636383405653	1
2	1725	164.377129902292	1
2	1736	165.449601967665	1
2	1747	167.695563976644	1
2	1758	168.871003967482	1
2	1769	170.452903179675	1
2	1780	174.89944584492	1
2	1791	175.891951357519	1
2	1804	177.256018947328	1
2	1807	177.356018947328	1
2	1822	178.165845602036	1
2	1833	179.713577203704	1
2	1844	180.37630130825	1
2	1855	180.852606389268	1
2	1866	181.199109454215	1
2	1877	181.835162724347	1
2	1890	182.511567892481	1
2	1893	182.611567892481	1
2	1908	183.507287954143	1
2	1914	183.673834339626	1
2	1929	186.142675651492	1
2	1940	186.616180115342	1
2	1946	186.803458330625	1
2	1961	187.236171454889	1
2	1974	187.766025582513	1
2	1977	187.866025582513	1
2	1992	190.442215062562	1
2	2001	190.71313859618	1
2	2014	191.077183673129	1
2	2023	191.295893251101	1
2	2036	191.923906392366	1
2	2047	192.412400956192	1
2	2058	193.105390466026	1
2	2069	194.899898475917	1
2	2080	196.423570218992	1
2	2093	197.914986398965	1
2	2096	198.014986398965	1
2	2111	199.552593043558	1
3	12	1.35109196372	1
3	17	1.55109196372	1
3	28	2.134260672312	1
3	39	2.700996351696	1
3	53	4.809672910977	1
3	64	5.090112975802	1
3	72	5.29081060946	1
3	83	7.680865215926	1
3	97	9.592984243635	1
3	105	9.821105665386	1
3	120	11.207945341596	1
3	125	11.407945341596	1
3	136	12.316437513911	1
3	147	12.873117699836	1
3	158	17.287291475029	1
3	172	18.129266270616	1
3	180	18.426283006804	1
3	195	20.320938919878	1
3	200	20.520938919878	1
3	211	24.213480791288	1
3	222	25.223310846198	1
3	233	25.61390505773	1
3	244	27.493266271011	1
3	255	28.302297163697	1
3	266	29.634765003912	1
3	281	30.536962260166	1
3	294	30.736962260166	1
3	301	30.936962260166	1
3	306	31.136962260166	1
3	317	32.026223680856	1
3	331	32.379652102603	1
3	339	32.60724555372	1
3	350	33.768702409031	1
3	361	34.104677515397	1
3	372	36.082473048443	1
3	386	37.055709127746	1
3	394	37.277147082072	1
3	405	37.775357633821	1
3	416	38.845933715142	1
3	427	39.655734662889	1
3	438	40.858560206701	1
3	449	43.220151818346	1
3	460	43.654622243728	1
3	471	44.390654208667	1
3	482	45.9511141026	1
3	493	48.743872719274	1
3	504	50.426139078819	1
3	518	51.762329301926	1
3	526	51.982254641279	1
3	537	52.289755710124	1
3	548	55.274652847391	1
3	559	55.827266809948	1
3	570	56.474676836262	1
3	581	60.011296794168	1
3	595	61.109710150004	1
3	606	61.320548364593	1
3	614	61.557932887128	1
3	625	62.332147645686	1
3	636	63.979943538941	1
3	647	64.647947924333	1
3	658	65.033148923277	1
3	669	66.521930999114	1
3	680	66.869980350906	1
3	691	68.080439262378	1
3	702	68.439858213441	1
3	713	70.311416687684	1
3	724	72.071034688527	1
3	735	72.861689408463	1
3	746	73.66584344243	1
3	760	74.114011850777	1
3	768	74.32680589396	1
3	779	75.93124391856	1
3	790	77.183905468958	1
3	801	80.084113458822	1
3	812	81.105404640749	1
3	823	81.928086013298	1
3	834	82.689948600215	1
3	845	84.320810131802	1
3	856	85.170676415719	1
3	875	86.549643825601	1
3	880	86.749643825601	1
3	885	86.949643825601	1
3	896	87.926337227803	1
3	907	89.946292670997	1
3	918	90.71127793087	1
3	933	91.346537717632	1
3	938	91.546537717632	1
3	953	94.640443115657	1
3	958	94.840443115657	1
3	969	95.346712812446	1
3	980	95.672239422417	1
3	991	97.070463553741	1
3	1002	103.017062517922	1
3	1016	103.826870252603	1
3	1034	104.082537826953	1
3	1045	104.282537826953	1
3	1050	104.482537826953	1
3	1055	104.682537826953	1
3	1065	104.882537826953	1
3	1070	105.082537826953	1
3	1081	105.475661506587	1
3	1092	106.110094776097	1
3	1106	107.76138677629	1
3	1119	108.007430436757	1
3	1129	108.252461311635	1
3	1134	108.452461311635	1
3	1145	111.016040504168	1
3	1156	111.468943411128	1
3	1175	115.934167045261	1
3	1180	116.134167045261	1
3	1185	116.334167045261	1
3	1196	117.402155663197	1
3	1207	118.938820712614	1
3	1218	119.342094806744	1
3	1229	120.498432446773	1
3	1240	121.971853977334	1
3	1251	122.696789054722	1
3	1262	123.352109689827	1
3	1273	123.665606339528	1
3	1284	124.066120986073	1
3	1295	125.159093608768	1
3	1306	126.143815126018	1
3	1317	127.644956876037	1
3	1328	128.202815222211	1
3	1342	128.848441053261	1
3	1350	129.137536904341	1
3	1366	133.542729146249	1
3	1371	133.742729146249	1
3	1382	134.374114664863	1
3	1393	135.806151099574	1
3	1404	136.919436775831	1
3	1415	139.416189602433	1
3	1429	139.978763503964	1
3	1437	140.196820003306	1
3	1448	140.499247238658	1
3	1459	141.677384886793	1
3	1470	144.563301156488	1
3	1481	145.231006410164	1
3	1496	146.392978086181	1
3	1501	146.592978086181	1
3	1512	147.486244470814	1
3	1527	148.10612894933	1
3	1532	148.30612894933	1
3	1543	148.861214463187	1
3	1557	151.227791706651	1
3	1565	151.474057125252	1
3	1576	152.016623397053	1
3	1587	153.104956679212	1
3	1598	153.751112444931	1
3	1614	154.647168127436	1
3	1619	154.847168127436	1
3	1630	155.490232337814	1
3	1641	155.940030064625	1
3	1652	157.666612326464	1
3	1666	158.061380377272	1
3	1679	158.298019444363	1
3	1687	158.498019444363	1
3	1695	158.736611887727	1
3	1706	160.325687031257	1
3	1717	163.836483405653	1
3	1728	164.577229902292	1
3	1739	165.649701967665	1
3	1750	167.895663976644	1
3	1761	169.071103967482	1
3	1772	170.653003179675	1
3	1783	175.09954584492	1
3	1794	176.092051357519	1
3	1809	177.456118947328	1
3	1814	177.656118947328	1
3	1825	178.365945602036	1
3	1836	179.913677203704	1
3	1847	180.57640130825	1
3	1858	181.052706389268	1
3	1869	181.399209454215	1
3	1880	182.035262724347	1
3	1895	182.711667892481	1
3	1900	182.911667892481	1
3	1916	183.707387954143	1
3	1921	183.907387954143	1
3	1932	186.342775651492	1
3	1948	186.816280115342	1
3	1953	187.016280115342	1
3	1964	187.436271454889	1
3	1979	187.966125582513	1
3	1984	188.166125582513	1
3	1998	190.642315062562	1
3	2006	190.91323859618	1
3	2020	191.277283673129	1
3	2028	191.495993251101	1
3	2039	192.124006392366	1
3	2050	192.612500956192	1
3	2061	193.305490466026	1
3	2072	195.099998475917	1
3	2083	196.623670218992	1
3	2098	198.115086398965	1
3	2103	198.315086398965	1
3	2114	199.752693043558	1
4	14	1.45109196372	0.4002
4	19	1.65109196372	0.521145138837
4	30	2.234260672312	0.4002
4	41	2.800996351696	0.4002
4	58	4.909672910977	0.4002
4	69	5.190112975802	0.4002
4	74	5.39081060946	0.4002
4	85	7.780865215926	0.4002
4	102	9.692984243635	0.4002
4	107	9.921105665386	0.4002
4	122	11.307945341596	0.4002
4	127	11.507945341596	0.588626556025
4	138	12.416437513911	0.4002
4	149	12.973117699836	0.4002
4	160	17.387291475029	0.4002
4	177	18.229266270616	0.4002
4	182	18.526283006804	0.4002
4	197	20.420938919878	0.4002
4	202	20.620938919878	0.571485743114
4	213	24.313480791288	0.4002
4	227	25.323310846198	0.4002
4	235	25.71390505773	0.4002
4	246	27.593266271011	0.4002
4	257	28.402297163697	0.4002
4	268	29.734765003912	0.4002
4	286	30.636962260166	0.4002
4	298	30.836962260166	0.579173369336
4	303	31.036962260166	0.438635252955
4	308	31.236962260166	0.520298546594
4	322	32.126223680856	0.4002
4	336	32.479652102603	0.4002
4	341	32.70724555372	0.4002
4	355	33.868702409031	0.4002
4	363	34.204677515397	0.4002
4	374	36.182473048443	0.4002
4	391	37.155709127746	0.4002
4	396	37.377147082072	0.4002
4	407	37.875357633821	0.4002
4	418	38.945933715142	0.4002
4	429	39.755734662889	0.4002
4	440	40.958560206701	0.4002
4	451	43.320151818346	0.4002
4	462	43.754622243728	0.4002
4	473	44.490654208667	0.4002
4	484	46.0511141026	0.4002
4	495	48.843872719274	0.4002
4	506	50.526139078819	0.4002
4	523	51.862329301926	0.4002
4	531	52.082254641279	0.4002
4	539	52.389755710124	0.4002
4	550	55.374652847391	0.4002
4	561	55.927266809948	0.4002
4	572	56.574676836262	0.4002
4	583	60.111296794168	0.4002
4	600	61.209710150004	0.4002
4	611	61.420548364593	0.4002
4	616	61.657932887128	0.4002
4	627	62.432147645686	0.4002
4	638	64.079943538941	0.4002
4	652	64.747947924333	0.4002
4	660	65.133148923277	0.4002
4	674	66.621930999114	0.4002
4	682	66.969980350906	0.4002
4	696	68.180439262378	0.4002
4	704	68.539858213441	0.4002
4	715	70.411416687684	0.4002
4	726	72.171034688527	0.4002
4	737	72.961689408463	0.4002
4	748	73.76584344243	0.4002
4	765	74.214011850777	0.4002
4	770	74.42680589396	0.4002
4	781	76.03124391856	0.4002
4	792	77.283905468958	0.4002
4	803	80.184113458822	0.4002
4	814	81.205404640749	0.4002
4	825	82.028086013298	0.4002
4	836	82.789948600215	0.4002
4	847	84.420810131802	0.4002
4	858	85.270676415719	0.4002
4	877	86.649643825601	0.4002
4	882	86.849643825601	0.5877907841
4	887	87.049643825601	0.611730641791
4	898	88.026337227803	0.4002
4	909	90.046292670997	0.4002
4	920	90.81127793087	0.4002
4	935	91.446537717632	0.4002
4	940	91.646537717632	0.517758476192
4	955	94.740443115657	0.4002
4	960	94.940443115657	0.586468652635
4	974	95.446712812446	0.4002
4	982	95.772239422417	0.4002
4	993	97.170463553741	0.4002
4	1004	103.117062517922	0.4002
4	1023	103.926870252603	0.4002
4	1040	104.182537826953	0.4002
4	1047	104.382537826953	0.536798717661
4	1052	104.582537826953	0.62584999968
4	1060	104.782537826953	0.705068629904
4	1067	104.982537826953	0.888633530989
4	1075	105.182537826953	0.425060646666
4	1083	105.575661506587	0.4002
4	1094	106.210094776097	0.4002
4	1111	107.86138677629	0.4002
4	1124	108.107430436757	0.4002
4	1131	108.352461311635	0.4002
4	1136	108.552461311635	0.563929811125
4	1147	111.116040504168	0.4002
4	1158	111.568943411128	0.4002
4	1177	116.034167045261	0.4002
4	1182	116.234167045261	0.543162631567
4	1187	116.434167045261	0.732084807788
4	1198	117.502155663197	0.4002
4	1209	119.038820712614	0.4002
4	1220	119.442094806744	0.4002
4	1231	120.598432446773	0.4002
4	1242	122.071853977334	0.4002
4	1253	122.796789054722	0.4002
4	1267	123.452109689827	0.4002
4	1275	123.765606339528	0.4002
4	1286	124.166120986073	0.4002
4	1297	125.259093608768	0.4002
4	1308	126.243815126018	0.4002
4	1319	127.744956876037	0.4002
4	1330	128.302815222211	0.4002
4	1347	128.948441053261	0.4002
4	1352	129.237536904341	0.4002
4	1368	133.642729146249	0.4002
4	1373	133.842729146249	0.454480486614
4	1384	134.474114664863	0.4002
4	1395	135.906151099574	0.4002
4	1406	137.019436775831	0.4002
4	1417	139.516189602433	0.4002
4	1434	140.078763503964	0.4002
4	1442	140.296820003306	0.4002
4	1450	140.599247238658	0.4002
4	1461	141.777384886793	0.4002
4	1472	144.663301156488	0.4002
4	1483	145.331006410164	0.4002
4	1498	146.492978086181	0.4002
4	1503	146.692978086181	0.584730253329
4	1514	147.586244470814	0.4002
4	1529	148.20612894933	0.4002
4	1534	148.40612894933	0.564190486564
4	1545	148.961214463187	0.4002
4	1562	151.327791706651	0.4002
4	1567	151.574057125252	0.4002
4	1578	152.116623397053	0.4002
4	1589	153.204956679212	0.4002
4	1600	153.851112444931	0.4002
4	1616	154.747168127436	0.4002
4	1621	154.947168127436	0.454441341538
4	1632	155.590232337814	0.4002
4	1643	156.040030064625	0.4002
4	1657	157.766612326464	0.4002
4	1674	158.161380377272	0.4002
4	1681	158.398019444363	0.4002
4	1692	158.598019444363	0.440010307848
4	1697	158.836611887727	0.4002
4	1708	160.425687031257	0.4002
4	1719	163.936483405653	0.4002
4	1730	164.677229902292	0.4002
4	1741	165.749701967665	0.4002
4	1752	167.995663976644	0.4002
4	1763	169.171103967482	0.4002
4	1774	170.753003179675	0.4002
4	1785	175.19954584492	0.4002
4	1796	176.192051357519	0.4002
4	1811	177.556118947328	0.4002
4	1816	177.756118947328	0.530713804707
4	1827	178.465945602036	0.4002
4	1838	180.013677203704	0.4002
4	1849	180.67640130825	0.4002
4	1863	181.152706389268	0.4002
4	1871	181.499209454215	0.4002
4	1882	182.135262724347	0.4002
4	1897	182.811667892481	0.4002
4	1902	183.011667892481	0.517795443097
4	1918	183.807387954143	0.4002
4	1923	184.007387954143	0.433653614517
4	1934	186.442775651492	0.4002
4	1950	186.916280115342	0.4002
4	1955	187.116280115342	0.412921784717
4	1966	187.536271454889	0.4002
4	1981	188.066125582513	0.4002
4	1986	188.266125582513	0.551529479025
4	2003	190.742315062562	0.4002
4	2011	191.01323859618	0.4002
4	2025	191.377283673129	0.4002
4	2030	191.595993251101	0.4002
4	2041	192.224006392366	0.4002
4	2052	192.712500956192	0.4002
4	2063	193.405490466026	0.4002
4	2074	195.199998475917	0.4002
4	2085	196.723670218992	0.4002
4	2100	198.215086398965	0.4002
4	2105	198.415086398965	0.589860434425
4	2116	199.852693043558	0.4002
5	14	1.45109196372	1
5	19	1.65109196372	1
5	30	2.234260672312	1
5	41	2.800996351696	1
5	58	4.909672910977	1
5	69	5.190112975802	1
5	74	5.39081060946	1
5	85	7.780865215926	1
5	102	9.692984243635	1
5	107	9.921105665386	1
5	122	11.307945341596	1
5	127	11.507945341596	1
5	138	12.416437513911	1
5	149	12.973117699836	1
5	160	17.387291475029	1
5	177	18.229266270616	1
5	182	18.526283006804	1
5	197	20.420938919878	1
5	202	20.620938919878	1
5	213	24.313480791288	1
5	227	25.323310846198	1
5	235	25.71390505773	1
5	246	27.593266271011	1
5	257	28.402297163697	1
5	268	29.734765003912	1
5	286	30.636962260166	1
5	298	30.836962260166	1
5	303	31.036962260166	1
5	308	31.236962260166	1
5	322	32.126223680856	1
5	336	32.479652102603	1
5	341	32.70724555372	1
5	355	33.868702409031	1
5	363	34.204677515397	1
5	374	36.182473048443	1
5	391	37.155709127746	1
5	396	37.377147082072	1
5	407	37.875357633821	1
5	418	38.945933715142	1
5	429	39.755734662889	1
5	440	40.958560206701	1
5	451	43.320151818346	1
5	462	43.754622243728	1
5	473	44.490654208667	1
5	484	46.0511141026	1
5	495	48.843872719274	1
5	506	50.526139078819	1
5	523	51.862329301926	1
5	531	52.082254641279	1
5	539	52.389755710124	1
5	550	55.374652847391	1
5	561	55.927266809948	1
5	572	56.574676836262	1
5	583	60.111296794168	1
5	600	61.209710150004	1
5	611	61.420548364593	1
5	616	61.657932887128	1
5	627	62.432147645686	1
5	638	64.079943538941	1
5	652	64.747947924333	1
5	660	65.133148923277	1
5	674	66.621930999114	1
5	682	66.969980350906	1
5	696	68.180439262378	1
5	704	68.539858213441	1
5	715	70.411416687684	1
5	726	72.171034688527	1
5	737	72.961689408463	1
5	748	73.76584344243	1
5	765	74.214011850777	1
5	770	74.42680589396	1
5	781	76.03124391856	1
5	792	77.283905468958	1
5	803	80.184113458822	1
5	814	81.205404640749	1
5	825	82.028086013298	1
5	836	82.789948600215	1
5	847	84.420810131802	1
5	858	85.270676415719	1
5	877	86.649643825601	1
5	882	86.849643825601	1
5	887	87.049643825601	1
5	898	88.026337227803	1
5	909	90.046292670997	1
5	920	90.81127793087	1
5	935	91.446537717632	1
5	940	91.646537717632	1
5	955	94.740443115657	1
5	960	94.940443115657	1
5	974	95.446712812446	1
5	982	95.772239422417	1
5	993	97.170463553741	1
5	1004	103.117062517922	1
5	1023	103.926870252603	1
5	1040	104.182537826953	1
5	1047	104.382537826953	1
5	1052	104.582537826953	1
5	1060	104.782537826953	1
5	1067	104.982537826953	1
5	1075	105.182537826953	1
5	1083	105.575661506587	1
5	1094	106.210094776097	1
5	1111	107.86138677629	1
5	1124	108.107430436757	1
5	1131	108.352461311635	1
5	1136	108.552461311635	1
5	1147	111.116040504168	1
5	1158	111.568943411128	1
5	1177	116.034167045261	1
5	1182	116.234167045261	1
5	1187	116.434167045261	1
5	1198	117.502155663197	1
5	1209	119.038820712614	1
5	1220	119.442094806744	1
5	1231	120.598432446773	1
5	1242	122.071853977334	1
5	1253	122.796789054722	1
5	1267	123.452109689827	1
5	1275	123.765606339528	1
5	1286	124.166120986073	1
5	1297	125.259093608768	1
5	1308	126.243815126018	1
5	1319	127.744956876037	1
5	1330	128.302815222211	1
5	1347	128.948441053261	1
5	1352	129.237536904341	1
5	1368	133.642729146249	1
5	1373	133.842729146249	1
5	1384	134.474114664863	1
5	1395	135.906151099574	1
5	1406	137.019436775831	1
5	1417	139.516189602433	1
5	1434	140.078763503964	1