version 3
run BaseVersion-16-20240511-20:48:36-11938
attr configname BaseVersion
attr datetime 20240511-20:48:36
attr datetimef 20240511-204836
attr experiment BaseVersion
attr inifile omnetpp.ini
attr iterationvars $genInterval=0.9
attr iterationvarsd genInterval=0.9
attr iterationvarsf genInterval=0.9-
attr measurement $genInterval=0.9
attr network Network
attr processid 11938
attr repetition 0
attr replication #0
attr resultdir results
attr runnumber 16
attr seedset 16
itervar genInterval 0.9
config network Network
config sim-time-limit 200s
config Network.nodeTx.gen.generationInterval exponential(0.9)
config Network.nodeTx.gen.packetByteSize 12500
config Network.nodeTx.queue.bufferSize 200
config Network.nodeRx.queue.bufferSize 200
config Network.queue.bufferSize 200

vector 0 Network.nodeTx.gen packetGen ETV
vector 1 Network.nodeTx.queue bufferSize ETV
vector 2 Network.queue bufferSize ETV
vector 3 Network.nodeRx.queue bufferSize ETV
vector 4 Network.nodeRx.sink Delay ETV
vector 5 Network.nodeRx.sink packetUsed ETV
0	1	0.22742065585	1
0	10	0.583369909984	1
0	23	1.249893073573	1
0	26	1.301460995494	1
0	43	2.021521925676	1
0	52	2.353676852775	1
0	55	2.395683859033	1
0	62	2.530581969954	1
0	76	2.933265873838	1
0	93	4.030334455501	1
0	99	4.257511652092	1
0	108	4.407923203293	1
0	125	5.458297221029	1
0	136	6.413021310442	1
0	142	6.573946219491	1
0	157	8.381682823876	1
0	160	8.447310886646	1
0	177	10.122522928492	1
0	188	12.669884653197	1
0	199	13.71104066442	1
0	210	14.457484933192	1
0	216	14.626290823024	1
0	219	14.69937239307	1
0	240	15.511363856892	1
0	251	16.665560596754	1
0	262	17.412527610895	1
0	268	17.567788801281	1
0	283	18.736049967824	1
0	289	18.995301461297	1
0	303	19.385854455733	1
0	314	19.698527092343	1
0	327	20.815695080558	1
0	338	21.889159758847	1
0	349	22.292979249002	1
0	360	22.854681799391	1
0	363	22.938317255232	1
0	373	23.156252910206	1
0	385	23.487797987787	1
0	401	24.020672819123	1
0	412	25.12569446354	1
0	418	25.241643668027	1
0	431	25.693970321759	1
0	444	27.941474013528	1
0	450	28.136265836728	1
0	465	28.888431560582	1
0	471	29.177399595693	1
0	487	29.752225620496	1
0	493	29.878592536989	1
0	503	30.218525854242	1
0	519	31.768025335277	1
0	522	31.807784943053	1
0	524	31.862623003032	1
0	548	33.119132951151	1
0	554	33.319418100448	1
0	570	34.024712797159	1
0	581	35.313405115438	1
0	592	36.625186096197	1
0	603	38.554517862336	1
0	614	39.96102617344	1
0	625	40.588259987484	1
0	628	40.655725906195	1
0	645	41.198190047755	1
0	656	42.168366858774	1
0	667	42.658381646995	1
0	670	42.707676744985	1
0	675	42.798976255127	1
0	696	43.838710492645	1
0	707	44.833469199529	1
0	718	45.360707487856	1
0	729	46.945123899699	1
0	740	47.513117989401	1
0	751	48.370057576087	1
0	762	49.343794756311	1
0	773	53.144426633098	1
0	784	54.198394440221	1
0	795	55.386857561872	1
0	801	55.661910657505	1
0	810	55.77460630154	1
0	813	55.784997095119	1
0	829	56.258575708829	1
0	846	57.586363608864	1
0	852	57.839289345549	1
0	868	59.363523345031	1
0	879	60.64464925133	1
0	885	60.780014865044	1
0	900	62.181912818523	1
0	911	62.958402182269	1
0	917	63.11503016547	1
0	930	63.489913989273	1
0	943	64.860131608389	1
0	949	65.097953163735	1
0	958	65.227967281386	1
0	968	65.427271997662	1
0	980	65.73245670884	1
0	991	66.017536195677	1
0	1007	67.316189921383	1
0	1018	70.705481837674	1
0	1029	71.477776583988	1
0	1035	71.696132946179	1
0	1038	71.705438016355	1
0	1055	72.102058460801	1
0	1071	73.388050832918	1
0	1074	73.404765033355	1
0	1076	73.434112687036	1
0	1100	74.297368242909	1
0	1111	75.210750827878	1
0	1117	75.446453069609	1
0	1133	76.435931958994	1
0	1144	77.656475905826	1
0	1155	78.103727055746	1
0	1166	78.893631558374	1
0	1177	79.620905997173	1
0	1188	80.11132116014	1
0	1199	80.986327661863	1
0	1210	82.098098769161	1
0	1221	83.227079598989	1
0	1232	86.446539582237	1
0	1243	93.004560873664	1
0	1254	94.499404266628	1
0	1265	97.468617515456	1
0	1276	97.975559623819	1
0	1287	99.281302886072	1
0	1298	102.128582934296	1
0	1309	103.23437284856	1
0	1312	103.278415406089	1
0	1329	104.841414683947	1
0	1340	106.029135431656	1
0	1351	106.543658501823	1
0	1362	107.55704302216	1
0	1373	108.666104091003	1
0	1384	109.339907829276	1
0	1390	109.617727358891	1
0	1406	110.371017065349	1
0	1417	111.184099035692	1
0	1428	112.33928516104	1
0	1439	113.894405710132	1
0	1450	114.927248434761	1
0	1461	116.308020670717	1
0	1472	117.73566520882	1
0	1483	120.970449365121	1
0	1489	121.07821190644	1
0	1504	121.913962833157	1
0	1510	122.113850475945	1
0	1525	126.522364576607	1
0	1536	127.672284093972	1
0	1539	127.742872592464	1
0	1554	128.193463331826	1
0	1562	128.34726788216	1
0	1575	128.720121652523	1
0	1583	128.895701000453	1
0	1591	129.045623828944	1
0	1606	129.441582828872	1
0	1611	129.536981485676	1
0	1628	130.738873939975	1
0	1639	131.209553849946	1
0	1650	131.694643140161	1
0	1661	132.481662860724	1
0	1667	132.748724145698	1
0	1683	133.963588005398	1
0	1694	134.433063323806	1
0	1705	136.27176368617	1
0	1716	137.428104346074	1
0	1727	140.48539634578	1
0	1736	140.808735251423	1
0	1749	141.355941050469	1
0	1760	143.016717387704	1
0	1771	143.477095177555	1
0	1777	143.649518256123	1
0	1787	143.96916340666	1
0	1793	144.041342736767	1
0	1812	145.627463518392	1
0	1818	145.746808711981	1
0	1833	147.912372860306	1
0	1844	148.929524151352	1
0	1855	150.237240724022	1
0	1866	152.221358572341	1
0	1869	152.285042821542	1
0	1874	152.420181940007	1
0	1895	153.258506442853	1
0	1906	154.126731221994	1
0	1917	156.647119018956	1
0	1928	157.100113601574	1
0	1931	157.197083275085	1
0	1948	157.742406063721	1
0	1959	161.158804049664	1
0	1970	163.511773194778	1
0	1979	163.908787115941	1
0	1987	164.097061825228	1
0	2002	165.052733660018	1
0	2013	165.544886659947	1
0	2019	165.662790232959	1
0	2034	166.338113609724	1
0	2045	169.266052385612	1
0	2051	169.475685476471	1
0	2067	170.423568483312	1
0	2078	171.423472037701	1
0	2089	173.907039517647	1
0	2100	174.552794526785	1
0	2111	176.708294417064	1
0	2114	176.762349983081	1
0	2129	177.279390558277	1
0	2142	177.982380304225	1
0	2153	180.418648925456	1
0	2164	181.24348440409	1
0	2175	182.345907659559	1
0	2186	183.085495699206	1
0	2192	183.365212094639	1
0	2208	184.294452471407	1
0	2214	184.472801957439	1
0	2229	187.593012980713	1
0	2240	188.552247449844	1
0	2251	190.401923956091	1
0	2262	191.955439146616	1
0	2273	193.675884159242	1
0	2284	195.822363135357	1
0	2295	196.240036063747	1
0	2306	197.125608549367	1
0	2317	198.138868294471	1
0	2323	198.298761838454	1
0	2331	198.467189738	1
0	2343	198.764903498137	1
0	2352	198.90308850718	1
0	2369	199.701604071237	1
1	2	0.22742065585	1
1	11	0.583369909984	1
1	24	1.249893073573	1
1	27	1.301460995494	1
1	44	2.021521925676	1
1	53	2.353676852775	1
1	56	2.395683859033	1
1	63	2.530581969954	1
1	77	2.933265873838	1
1	94	4.030334455501	1
1	100	4.257511652092	1
1	109	4.407923203293	1
1	126	5.458297221029	1
1	137	6.413021310442	1
1	143	6.573946219491	1
1	158	8.381682823876	1
1	161	8.447310886646	1
1	178	10.122522928492	1
1	189	12.669884653197	1
1	200	13.71104066442	1
1	211	14.457484933192	1
1	217	14.626290823024	1
1	220	14.69937239307	1
1	241	15.511363856892	1
1	252	16.665560596754	1
1	263	17.412527610895	1
1	269	17.567788801281	1
1	284	18.736049967824	1
1	290	18.995301461297	1
1	304	19.385854455733	1
1	315	19.698527092343	1
1	328	20.815695080558	1
1	339	21.889159758847	1
1	350	22.292979249002	1
1	361	22.854681799391	1
1	364	22.938317255232	1
1	374	23.156252910206	1
1	386	23.487797987787	1
1	402	24.020672819123	1
1	413	25.12569446354	1
1	419	25.241643668027	1
1	432	25.693970321759	1
1	445	27.941474013528	1
1	451	28.136265836728	1
1	466	28.888431560582	1
1	472	29.177399595693	1
1	488	29.752225620496	1
1	494	29.878592536989	1
1	504	30.218525854242	1
1	520	31.768025335277	1
1	523	31.807784943053	1
1	525	31.862623003032	2
1	549	33.119132951151	1
1	555	33.319418100448	1
1	571	34.024712797159	1
1	582	35.313405115438	1
1	593	36.625186096197	1
1	604	38.554517862336	1
1	615	39.96102617344	1
1	626	40.588259987484	1
1	629	40.655725906195	1
1	646	41.198190047755	1
1	657	42.168366858774	1
1	668	42.658381646995	1
1	671	42.707676744985	1
1	676	42.798976255127	1
1	697	43.838710492645	1
1	708	44.833469199529	1
1	719	45.360707487856	1
1	730	46.945123899699	1
1	741	47.513117989401	1
1	752	48.370057576087	1
1	763	49.343794756311	1
1	774	53.144426633098	1
1	785	54.198394440221	1
1	796	55.386857561872	1
1	802	55.661910657505	1
1	811	55.77460630154	1
1	814	55.784997095119	1
1	830	56.258575708829	1
1	847	57.586363608864	1
1	853	57.839289345549	1
1	869	59.363523345031	1
1	880	60.64464925133	1
1	886	60.780014865044	1
1	901	62.181912818523	1
1	912	62.958402182269	1
1	918	63.11503016547	1
1	931	63.489913989273	1
1	944	64.860131608389	1
1	950	65.097953163735	1
1	959	65.227967281386	1
1	969	65.427271997662	1
1	981	65.73245670884	1
1	992	66.017536195677	1
1	1008	67.316189921383	1
1	1019	70.705481837674	1
1	1030	71.477776583988	1
1	1036	71.696132946179	1
1	1039	71.705438016355	1
1	1056	72.102058460801	1
1	1072	73.388050832918	1
1	1075	73.404765033355	1
1	1077	73.434112687036	2
1	1101	74.297368242909	1
1	1112	75.210750827878	1
1	1118	75.446453069609	1
1	1134	76.435931958994	1
1	1145	77.656475905826	1
1	1156	78.103727055746	1
1	1167	78.893631558374	1
1	1178	79.620905997173	1
1	1189	80.11132116014	1
1	1200	80.986327661863	1
1	1211	82.098098769161	1
1	1222	83.227079598989	1
1	1233	86.446539582237	1
1	1244	93.004560873664	1
1	1255	94.499404266628	1
1	1266	97.468617515456	1
1	1277	97.975559623819	1
1	1288	99.281302886072	1
1	1299	102.128582934296	1
1	1310	103.23437284856	1
1	1313	103.278415406089	1
1	1330	104.841414683947	1
1	1341	106.029135431656	1
1	1352	106.543658501823	1
1	1363	107.55704302216	1
1	1374	108.666104091003	1
1	1385	109.339907829276	1
1	1391	109.617727358891	1
1	1407	110.371017065349	1
1	1418	111.184099035692	1
1	1429	112.33928516104	1
1	1440	113.894405710132	1
1	1451	114.927248434761	1
1	1462	116.308020670717	1
1	1473	117.73566520882	1
1	1484	120.970449365121	1
1	1490	121.07821190644	1
1	1505	121.913962833157	1
1	1511	122.113850475945	1
1	1526	126.522364576607	1
1	1537	127.672284093972	1
1	1540	127.742872592464	1
1	1555	128.193463331826	1
1	1563	128.34726788216	1
1	1576	128.720121652523	1
1	1584	128.895701000453	1
1	1592	129.045623828944	1
1	1607	129.441582828872	1
1	1612	129.536981485676	1
1	1629	130.738873939975	1
1	1640	131.209553849946	1
1	1651	131.694643140161	1
1	1662	132.481662860724	1
1	1668	132.748724145698	1
1	1684	133.963588005398	1
1	1695	134.433063323806	1
1	1706	136.27176368617	1
1	1717	137.428104346074	1
1	1728	140.48539634578	1
1	1737	140.808735251423	1
1	1750	141.355941050469	1
1	1761	143.016717387704	1
1	1772	143.477095177555	1
1	1778	143.649518256123	1
1	1788	143.96916340666	1
1	1794	144.041342736767	1
1	1813	145.627463518392	1
1	1819	145.746808711981	1
1	1834	147.912372860306	1
1	1845	148.929524151352	1
1	1856	150.237240724022	1
1	1867	152.221358572341	1
1	1870	152.285042821542	1
1	1875	152.420181940007	1
1	1896	153.258506442853	1
1	1907	154.126731221994	1
1	1918	156.647119018956	1
1	1929	157.100113601574	1
1	1932	157.197083275085	1
1	1949	157.742406063721	1
1	1960	161.158804049664	1
1	1971	163.511773194778	1
1	1980	163.908787115941	1
1	1988	164.097061825228	1
1	2003	165.052733660018	1
1	2014	165.544886659947	1
1	2020	165.662790232959	1
1	2035	166.338113609724	1
1	2046	169.266052385612	1
1	2052	169.475685476471	1
1	2068	170.423568483312	1
1	2079	171.423472037701	1
1	2090	173.907039517647	1
1	2101	174.552794526785	1
1	2112	176.708294417064	1
1	2115	176.762349983081	1
1	2130	177.279390558277	1
1	2143	177.982380304225	1
1	2154	180.418648925456	1
1	2165	181.24348440409	1
1	2176	182.345907659559	1
1	2187	183.085495699206	1
1	2193	183.365212094639	1
1	2209	184.294452471407	1
1	2215	184.472801957439	1
1	2230	187.593012980713	1
1	2241	188.552247449844	1
1	2252	190.401923956091	1
1	2263	191.955439146616	1
1	2274	193.675884159242	1
1	2285	195.822363135357	1
1	2296	196.240036063747	1
1	2307	197.125608549367	1
1	2318	198.138868294471	1
1	2324	198.298761838454	1
1	2332	198.467189738	1
1	2344	198.764903498137	1
1	2353	198.90308850718	1
1	2370	199.701604071237	1
2	5	0.32752065585	1
2	16	0.683469909984	1
2	29	1.349993073573	1
2	32	1.449993073573	1
2	47	2.121621925676	1
2	60	2.453776852775	1
2	65	2.553776852775	1
2	68	2.653776852775	1
2	82	3.033365873838	1
2	97	4.130434455501	1
2	106	4.357611652092	1
2	114	4.508023203293	1
2	129	5.558397221029	1
2	140	6.513121310442	1
2	146	6.674046219491	1
2	163	8.481782823876	1
2	166	8.581782823876	1
2	181	10.222622928492	1
2	192	12.769984653197	1
2	203	13.81114066442	1
2	214	14.557584933192	1
2	222	14.726390823024	1
2	227	14.826390823024	1
2	244	15.611463856892	1
2	255	16.765660596754	1
2	266	17.512627610895	1
2	272	17.667888801281	1
2	287	18.836149967824	1
2	296	19.095401461297	1
2	309	19.485954455733	1
2	320	19.798627092343	1
2	331	20.915795080558	1
2	342	21.989259758847	1
2	353	22.393079249002	1
2	366	22.954781799391	1
2	369	23.054781799391	1
2	379	23.256352910206	1
2	392	23.587897987787	1
2	405	24.120772819123	1
2	416	25.22579446354	1
2	422	25.341743668027	1
2	437	25.794070321759	1
2	448	28.041574013528	1
2	454	28.236365836728	1
2	469	28.988531560582	1
2	478	29.277499595693	1
2	491	29.852325620496	1
2	497	29.978692536989	1
2	510	30.318625854242	1
2	527	31.868125335277	1
2	530	31.968125335277	1
2	533	32.068125335277	1
2	552	33.219232951151	1
2	561	33.419518100448	1
2	574	34.124812797159	1
2	585	35.413505115438	1
2	596	36.725286096197	1
2	607	38.654617862336	1
2	618	40.06112617344	1
2	631	40.688359987484	1
2	634	40.788359987484	1
2	649	41.298290047755	1
2	660	42.268466858774	1
2	673	42.758481646995	1
2	678	42.858481646995	1
2	681	42.958481646995	1
2	700	43.938810492645	1
2	711	44.933569199529	1
2	722	45.460807487856	1
2	733	47.045223899699	1
2	744	47.613217989401	1
2	755	48.470157576087	1
2	766	49.443894756311	1
2	777	53.244526633098	1
2	788	54.298494440221	1
2	799	55.486957561872	1
2	808	55.762010657505	1
2	818	55.87470630154	1
2	823	55.97470630154	1
2	835	56.358675708829	1
2	850	57.686463608864	1
2	859	57.939389345549	1
2	872	59.463623345031	1
2	883	60.74474925133	1
2	889	60.880114865044	1
2	904	62.282012818523	1
2	915	63.058502182269	1
2	921	63.21513016547	1
2	936	63.590013989273	1
2	947	64.960231608389	1
2	956	65.198053163735	1
2	964	65.328067281386	1
2	974	65.527371997662	1
2	987	65.83255670884	1
2	998	66.117636195677	1
2	1011	67.416289921383	1
2	1022	70.805581837674	1
2	1033	71.577876583988	1
2	1044	71.796232946179	1
2	1049	71.896232946179	1
2	1062	72.202158460801	1
2	1079	73.488150832918	1
2	1082	73.588150832918	1
2	1085	73.688150832918	1
2	1104	74.397468242909	1
2	1115	75.310850827878	1
2	1124	75.546553069609	1
2	1137	76.536031958994	1
2	1148	77.756575905826	1
2	1159	78.203827055746	1
2	1170	78.993731558374	1
2	1181	79.721005997173	1
2	1192	80.21142116014	1
2	1203	81.086427661863	1
2	1214	82.198198769161	1
2	1225	83.327179598989	1
2	1236	86.546639582237	1
2	1247	93.104660873664	1
2	1258	94.599504266628	1
2	1269	97.568717515456	1
2	1280	98.075659623819	1
2	1291	99.381402886072	1
2	1302	102.228682934296	1
2	1315	103.33447284856	1
2	1318	103.43447284856	1
2	1333	104.941514683947	1
2	1344	106.129235431656	1
2	1355	106.643758501823	1
2	1366	107.65714302216	1
2	1377	108.766204091003	1
2	1388	109.440007829276	1
2	1397	109.717827358891	1
2	1410	110.471117065349	1
2	1421	111.284199035692	1
2	1432	112.43938516104	1
2	1443	113.994505710132	1
2	1454	115.027348434761	1
2	1465	116.408120670717	1
2	1476	117.83576520882	1
2	1487	121.070549365121	1
2	1493	121.17831190644	1
2	1508	122.014062833157	1
2	1514	122.213950475945	1
2	1529	126.622464576607	1
2	1542	127.772384093972	1
2	1545	127.872384093972	1
2	1560	128.293563331826	1
2	1566	128.44736788216	1
2	1581	128.820221652523	1
2	1587	128.995801000453	1
2	1597	129.145723828944	1
2	1614	129.541682828872	1
2	1617	129.641682828872	1
2	1632	130.838973939975	1
2	1643	131.309653849946	1
2	1654	131.794743140161	1
2	1665	132.581762860724	1
2	1674	132.848824145698	1
2	1687	134.063688005398	1
2	1698	134.533163323806	1
2	1709	136.37186368617	1
2	1720	137.528204346074	1
2	1731	140.58549634578	1
2	1742	140.908835251423	1
2	1753	141.456041050469	1
2	1764	143.116817387704	1
2	1775	143.577195177555	1
2	1781	143.749618256123	1
2	1796	144.06926340666	1
2	1801	144.16926340666	1
2	1816	145.727563518392	1
2	1822	145.846908711981	1
2	1837	148.012472860306	1
2	1848	149.029624151352	1
2	1859	150.337340724022	1
2	1872	152.321458572341	1
2	1877	152.421458572341	1
2	1880	152.521458572341	1
2	1899	153.358606442853	1
2	1910	154.226831221994	1
2	1921	156.747219018956	1
2	1934	157.200213601574	1
2	1937	157.300213601574	1
2	1952	157.842506063721	1
2	1963	161.258904049664	1
2	1974	163.611873194778	1
2	1985	164.008887115941	1
2	1991	164.197161825228	1
2	2006	165.152833660018	1
2	2017	165.644986659947	1
2	2023	165.762890232959	1
2	2038	166.438213609724	1
2	2049	169.366152385612	1
2	2058	169.575785476471	1
2	2071	170.523668483312	1
2	2082	171.523572037701	1
2	2093	174.007139517647	1
2	2104	174.652894526785	1
2	2117	176.808394417064	1
2	2120	176.908394417064	1
2	2135	177.379490558277	1
2	2146	178.082480304225	1
2	2157	180.518748925456	1
2	2168	181.34358440409	1
2	2179	182.446007659559	1
2	2190	183.185595699206	1
2	2199	183.465312094639	1
2	2212	184.394552471407	1
2	2218	184.572901957439	1
2	2233	187.693112980713	1
2	2244	188.652347449844	1
2	2255	190.502023956091	1
2	2266	192.055539146616	1
2	2277	193.775984159242	1
2	2288	195.922463135357	1
2	2299	196.340136063747	1
2	2310	197.225708549367	1
2	2321	198.238968294471	1
2	2327	198.398861838454	1
2	2337	198.567289738	1
2	2350	198.865003498137	1
2	2358	199.00318850718	1
2	2373	199.801704071237	1
3	8	0.52762065585	1
3	19	0.883569909984	1
3	34	1.550093073573	1
3	39	1.750093073573	1
3	50	2.321721925676	1
3	69	2.653876852775	1
3	74	2.853876852775	1
3	84	3.053876852775	1
3	89	3.253876852775	1
3	103	4.330534455501	1
3	116	4.557711652092	1
3	121	4.757711652092	1
3	132	5.758497221029	1
3	148	6.713221310442	1
3	153	6.913221310442	1
3	168	8.681882823876	1
3	173	8.881882823876	1
3	184	10.422722928492	1
3	195	12.970084653197	1
3	206	14.01124066442	1
3	224	14.757684933192	1
3	231	14.957684933192	1
3	236	15.157684933192	1
3	247	15.811563856892	1
3	258	16.965760596754	1
3	274	17.712727610895	1
3	279	17.912727610895	1
3	293	19.036249967824	1
3	301	19.295501461297	1
3	312	19.686054455733	1
3	323	19.998727092343	1
3	334	21.115895080558	1
3	345	22.189359758847	1
3	356	22.593179249002	1
3	371	23.154881799391	1
3	381	23.354881799391	1
3	389	23.554881799391	1
3	397	23.787997987787	1
3	408	24.320872819123	1
3	424	25.42589446354	1
3	429	25.62589446354	1
3	440	25.994170321759	1
3	456	28.241674013528	1
3	461	28.441674013528	1
3	475	29.188631560582	1
3	483	29.477599595693	1
3	499	30.052425620496	1
3	507	30.252425620496	1
3	515	30.518725854242	1
3	534	32.068225335277	1
3	539	32.268225335277	1
3	544	32.468225335277	1
3	558	33.419332951151	1
3	566	33.619618100448	1
3	577	34.324912797159	1
3	588	35.613605115438	1
3	599	36.925386096197	1
3	610	38.854717862336	1
3	621	40.26122617344	1
3	636	40.888459987484	1
3	641	41.088459987484	1
3	652	41.498390047755	1
3	663	42.468566858774	1
3	682	42.958581646995	1
3	687	43.158581646995	1
3	692	43.358581646995	1
3	703	44.138910492645	1
3	714	45.133669199529	1
3	725	45.660907487856	1
3	736	47.245323899699	1
3	747	47.813317989401	1
3	758	48.670257576087	1
3	769	49.643994756311	1
3	780	53.444626633098	1
3	791	54.498594440221	1
3	805	55.687057561872	1
3	820	55.962110657505	1
3	827	56.162110657505	1
3	837	56.362110657505	1
3	842	56.562110657505	1
3	856	57.886563608864	1
3	864	58.139489345549	1
3	875	59.663723345031	1
3	891	60.94484925133	1
3	896	61.14484925133	1
3	907	62.482112818523	1
3	923	63.258602182269	1
3	928	63.458602182269	1
3	939	63.790113989273	1
3	953	65.160331608389	1
3	966	65.398153163735	1
3	976	65.598153163735	1
3	984	65.798153163735	1
3	995	66.03265670884	1
3	1003	66.317736195677	1
3	1014	67.616389921383	1
3	1025	71.005681837674	1
3	1041	71.777976583988	1
3	1051	71.996332946179	1
3	1059	72.196332946179	1
3	1067	72.402258460801	1
3	1086	73.688250832918	1
3	1091	73.888250832918	1
3	1096	74.088250832918	1
3	1107	74.597568242909	1
3	1121	75.510950827878	1
3	1129	75.746653069609	1
3	1140	76.736131958994	1
3	1151	77.956675905826	1
3	1162	78.403927055746	1
3	1173	79.193831558374	1
3	1184	79.921105997173	1
3	1195	80.41152116014	1
3	1206	81.286527661863	1
3	1217	82.398298769161	1
3	1228	83.527279598989	1
3	1239	86.746739582237	1
3	1250	93.304760873664	1
3	1261	94.799604266628	1
3	1272	97.768817515456	1
3	1283	98.275759623819	1
3	1294	99.581502886072	1
3	1305	102.428782934296	1
3	1320	103.53457284856	1
3	1325	103.73457284856	1
3	1336	105.141614683947	1
3	1347	106.329335431656	1
3	1358	106.843858501823	1
3	1369	107.85724302216	1
3	1380	108.966304091003	1
3	1394	109.640107829276	1
3	1402	109.917927358891	1
3	1413	110.671217065349	1
3	1424	111.484299035692	1
3	1435	112.63948516104	1
3	1446	114.194605710132	1
3	1457	115.227448434761	1
3	1468	116.608220670717	1
3	1479	118.03586520882	1
3	1495	121.270649365121	1
3	1500	121.470649365121	1
3	1516	122.214162833157	1
3	1521	122.414162833157	1
3	1532	126.822564576607	1
3	1547	127.972484093972	1
3	1552	128.172484093972	1
3	1568	128.493663331826	1
3	1573	128.693663331826	1
3	1589	129.020321652523	1
3	1599	129.220321652523	1
3	1604	129.420321652523	1
3	1619	129.741782828872	1
3	1624	129.941782828872	1
3	1635	131.039073939975	1
3	1646	131.509753849946	1
3	1657	131.994843140161	1
3	1671	132.781862860724	1
3	1679	133.048924145698	1
3	1690	134.263788005398	1
3	1701	134.733263323806	1
3	1712	136.57196368617	1
3	1723	137.728304346074	1
3	1734	140.78559634578	1
3	1745	141.108935251423	1
3	1756	141.656141050469	1
3	1767	143.316917387704	1
3	1783	143.777295177555	1
3	1791	143.977295177555	1
3	1803	144.26936340666	1
3	1808	144.46936340666	1
3	1824	145.927663518392	1
3	1829	146.127663518392	1
3	1840	148.212572860306	1
3	1851	149.229724151352	1
3	1862	150.537440724022	1
3	1881	152.521558572341	1
3	1886	152.721558572341	1
3	1891	152.921558572341	1
3	1902	153.558706442853	1
3	1913	154.426931221994	1
3	1924	156.947319018956	1
3	1939	157.400313601574	1
3	1944	157.600313601574	1
3	1955	158.042606063721	1
3	1966	161.459004049664	1
3	1977	163.811973194778	1
3	1993	164.208987115941	1
3	1998	164.408987115941	1
3	2009	165.352933660018	1
3	2025	165.845086659947	1
3	2030	166.045086659947	1
3	2041	166.638313609724	1
3	2055	169.566252385612	1
3	2063	169.775885476471	1
3	2074	170.723768483312	1
3	2085	171.723672037701	1
3	2096	174.207239517647	1
3	2107	174.852994526785	1
3	2122	177.008494417064	1
3	2127	177.208494417064	1
3	2138	177.579590558277	1
3	2149	178.282580304225	1
3	2160	180.718848925456	1
3	2171	181.54368440409	1
3	2182	182.646107659559	1
3	2196	183.385695699206	1
3	2204	183.665412094639	1
3	2220	184.594652471407	1
3	2225	184.794652471407	1
3	2236	187.893212980713	1
3	2247	188.852447449844	1
3	2258	190.702123956091	1
3	2269	192.255639146616	1
3	2280	193.976084159242	1
3	2291	196.122563135357	1
3	2302	196.540236063747	1
3	2313	197.425808549367	1
3	2329	198.439068294471	1
3	2339	198.639068294471	1
3	2347	198.839068294471	1
3	2360	199.065103498137	1
3	2365	199.265103498137	1
4	13	0.62762065585	0.4002
4	21	0.983569909984	0.4002
4	36	1.650093073573	0.4002
4	41	1.850093073573	0.548632078079
4	57	2.421721925676	0.4002
4	71	2.753876852775	0.4002
4	79	2.953876852775	0.558192993742
4	86	3.153876852775	0.623294882821
4	91	3.353876852775	0.420610978937
4	111	4.430534455501	0.4002
4	118	4.657711652092	0.4002
4	123	4.857711652092	0.449788448799
4	134	5.858497221029	0.4002
4	150	6.813221310442	0.4002
4	155	7.013221310442	0.439275090951
4	170	8.781882823876	0.4002
4	175	8.981882823876	0.53457193723
4	186	10.522722928492	0.4002
4	197	13.070084653197	0.4002
4	208	14.11124066442	0.4002
4	228	14.857684933192	0.4002
4	233	15.057684933192	0.431394110168
4	238	15.257684933192	0.558312540122
4	249	15.911563856892	0.4002
4	260	17.065760596754	0.4002
4	276	17.812727610895	0.4002
4	281	18.012727610895	0.444938809614
4	298	19.136249967824	0.4002
4	306	19.395501461297	0.4002
4	317	19.786054455733	0.4002
4	325	20.098727092343	0.4002
4	336	21.215895080558	0.4002
4	347	22.289359758847	0.4002
4	358	22.693179249002	0.4002
4	376	23.254881799391	0.4002
4	383	23.454881799391	0.516564544159
4	394	23.654881799391	0.498628889185
4	399	23.887997987787	0.4002
4	410	24.420872819123	0.4002
4	426	25.52589446354	0.4002
4	434	25.72589446354	0.484250795513
4	442	26.094170321759	0.4002
4	458	28.341674013528	0.4002
4	463	28.541674013528	0.4054081768
4	480	29.288631560582	0.4002
4	485	29.577599595693	0.4002
4	501	30.152425620496	0.4002
4	512	30.352425620496	0.473833083507
4	517	30.618725854242	0.4002
4	536	32.168225335277	0.4002
4	541	32.368225335277	0.560440392224
4	546	32.568225335277	0.705602332245
4	563	33.519332951151	0.4002
4	568	33.719618100448	0.4002
4	579	34.424912797159	0.4002
4	590	35.713605115438	0.4002
4	601	37.025386096197	0.4002
4	612	38.954717862336	0.4002
4	623	40.36122617344	0.4002
4	638	40.988459987484	0.4002
4	643	41.188459987484	0.532734081289
4	654	41.598390047755	0.4002
4	665	42.568566858774	0.4002
4	684	43.058581646995	0.4002
4	689	43.258581646995	0.55090490201
4	694	43.458581646995	0.659605391868
4	705	44.238910492645	0.4002
4	716	45.233669199529	0.4002
4	727	45.760907487856	0.4002
4	738	47.345323899699	0.4002
4	749	47.913317989401	0.4002
4	760	48.770257576087	0.4002
4	771	49.743994756311	0.4002
4	782	53.544626633098	0.4002
4	793	54.598594440221	0.4002
4	815	55.787057561872	0.4002
4	824	56.062110657505	0.4002
4	832	56.262110657505	0.487504355965
4	839	56.462110657505	0.677113562386
4	844	56.662110657505	0.403534948676
4	861	57.986563608864	0.4002
4	866	58.239489345549	0.4002
4	877	59.763723345031	0.4002
4	893	61.04484925133	0.4002
4	898	61.24484925133	0.464834386286
4	909	62.582112818523	0.4002
4	925	63.358602182269	0.4002
4	933	63.558602182269	0.443572016799
4	941	63.890113989273	0.4002
4	961	65.260331608389	0.4002
4	971	65.498153163735	0.4002
4	978	65.698153163735	0.470185882349
4	989	65.898153163735	0.470881166073
4	1000	66.13265670884	0.4002
4	1005	66.417736195677	0.4002
4	1016	67.716389921383	0.4002
4	1027	71.105681837674	0.4002
4	1046	71.877976583988	0.4002
4	1053	72.096332946179	0.4002
4	1064	72.296332946179	0.590894929824
4	1069	72.502258460801	0.4002
4	1088	73.788250832918	0.4002
4	1093	73.988250832918	0.583485799563
4	1098	74.188250832918	0.754138145882
4	1109	74.697568242909	0.4002
4	1126	75.610950827878	0.4002
4	1131	75.846653069609	0.4002
4	1142	76.836131958994	0.4002
4	1153	78.056675905826	0.4002
4	1164	78.503927055746	0.4002
4	1175	79.293831558374	0.4002
4	1186	80.021105997173	0.4002
4	1197	80.51152116014	0.4002
4	1208	81.386527661863	0.4002
4	1219	82.498298769161	0.4002
4	1230	83.627279598989	0.4002
4	1241	86.846739582237	0.4002
4	1252	93.404760873664	0.4002
4	1263	94.899604266628	0.4002
4	1274	97.868817515456	0.4002
4	1285	98.375759623819	0.4002
4	1296	99.681502886072	0.4002
4	1307	102.528782934296	0.4002
4	1322	103.63457284856	0.4002
4	1327	103.83457284856	0.556157442471
4	1338	105.241614683947	0.4002
4	1349	106.429335431656	0.4002
4	1360	106.943858501823	0.4002
4	1371	107.95724302216	0.4002
4	1382	109.066304091003	0.4002
4	1399	109.740107829276	0.4002
4	1404	110.017927358891	0.4002
4	1415	110.771217065349	0.4002
4	1426	111.584299035692	0.4002
4	1437	112.73948516104	0.4002
4	1448	114.294605710132	0.4002
4	1459	115.327448434761	0.4002
4	1470	116.708220670717	0.4002
4	1481	118.13586520882	0.4002
4	1497	121.370649365121	0.4002
4	1502	121.570649365121	0.492437458681
4	1518	122.314162833157	0.4002
4	1523	122.514162833157	0.400312357212
4	1534	126.922564576607	0.4002
4	1549	128.072484093972	0.4002
4	1557	128.272484093972	0.529611501508
4	1570	128.593663331826	0.4002
4	1578	128.793663331826	0.446395449666
4	1594	129.120321652523	0.4002
4	1601	129.320321652523	0.42462065207
4	1609	129.520321652523	0.474697823579
4	1621	129.841782828872	0.4002
4	1626	130.041782828872	0.504801343196
4	1637	131.139073939975	0.4002
4	1648	131.609753849946	0.4002
4	1659	132.094843140161	0.4002
4	1676	132.881862860724	0.4002
4	1681	133.148924145698	0.4002
4	1692	134.363788005398	0.4002
4	1703	134.833263323806	0.4002
4	1714	136.67196368617	0.4002
4	1725	137.828304346074	0.4002
4	1739	140.88559634578	0.4002
4	1747	141.208935251423	0.4002
4	1758	141.756141050469	0.4002
4	1769	143.416917387704	0.4002
4	1785	143.877295177555	0.4002
4	1798	144.077295177555	0.427776921432
4	1805	144.36936340666	0.4002
4	1810	144.56936340666	0.528020669893
4	1826	146.027663518392	0.4002
4	1831	146.227663518392	0.480854806411
4	1842	148.312572860306	0.4002
4	1853	149.329724151352	0.4002
4	1864	150.637440724022	0.4002
4	1883	152.621558572341	0.4002
4	1888	152.821558572341	0.536515750799
4	1893	153.021558572341	0.601376632334
4	1904	153.658706442853	0.4002
4	1915	154.526931221994	0.4002
4	1926	157.047319018956	0.4002
4	1941	157.500313601574	0.4002
4	1946	157.700313601574	0.503230326489
4	1957	158.142606063721	0.4002
4	1968	161.559004049664	0.4002
4	1982	163.911973194778	0.4002
4	1995	164.308987115941	0.4002
4	2000	164.508987115941	0.411925290713
4	2011	165.452933660018	0.4002
4	2027	165.945086659947	0.4002
4	2032	166.145086659947	0.482296426988
4	2043	166.738313609724	0.4002
4	2060	169.666252385612	0.4002
4	2065	169.875885476471	0.4002
4	2076	170.823768483312	0.4002
4	2087	171.823672037701	0.4002
4	2098	174.307239517647	0.4002
4	2109	174.952994526785	0.4002
4	2124	177.108494417064	0.4002
4	2132	177.308494417064	0.546144433983
4	2140	177.679590558277	0.4002
4	2151	178.382580304225	0.4002
4	2162	180.818848925456	0.4002
4	2173	181.64368440409	0.4002
4	2184	182.746107659559	0.4002
4	2201	183.485695699206	0.4002
4	2206	183.765412094639	0.4002
4	2222	184.694652471407	0.4002
4	2227	184.894652471407	0.421850513968
4	2238	187.993212980713	0.4002
4	2249	188.952447449844	0.4002
4	2260	190.802123956091	0.4002
4	2271	192.355639146616	0.4002
4	2282	194.076084159242	0.4002
4	2293	196.222563135357	0.4002
4	2304	196.640236063747	0.4002
4	2315	197.525808549367	0.4002