version 3
run BaseVersion-7-20240511-20:48:36-11938
attr configname BaseVersion
attr datetime 20240511-20:48:36
attr datetimef 20240511-204836
attr experiment BaseVersion
attr inifile omnetpp.ini
attr iterationvars $genInterval=0.45
attr iterationvarsd genInterval=0.45
attr iterationvarsf genInterval=0.45-
attr measurement $genInterval=0.45
attr network Network
attr processid 11938
attr repetition 0
attr replication #0
attr resultdir results
attr runnumber 7
attr seedset 7
itervar genInterval 0.45
config network Network
config sim-time-limit 200s
config Network.nodeTx.gen.generationInterval exponential(0.45)
config Network.nodeTx.gen.packetByteSize 12500
config Network.nodeTx.queue.bufferSize 200
config Network.nodeRx.queue.bufferSize 200
config Network.queue.bufferSize 200

vector 0 Network.nodeTx.gen packetGen ETV
vector 1 Network.nodeTx.queue bufferSize ETV
vector 2 Network.queue bufferSize ETV
vector 3 Network.nodeRx.queue bufferSize ETV
vector 4 Network.nodeRx.sink Delay ETV
vector 5 Network.nodeRx.sink packetUsed ETV
0	1	0.035719610161	1
0	7	0.151781348769	1
0	22	0.832972759363	1
0	28	1.005841245725	1
0	38	1.265483079315	1
0	54	2.987586342986	1
0	65	3.566024683246	1
0	71	3.839644161821	1
0	87	5.556950543495	1
0	93	5.722635041323	1
0	106	6.070603967185	1
0	114	6.208461326522	1
0	124	6.521387107751	1
0	127	6.562219398936	1
0	132	6.595869790744	1
0	146	6.840510205238	1
0	153	6.981168798916	1
0	156	6.988386028337	1
0	170	7.300196520684	1
0	185	7.637821662849	1
0	202	8.14948556524	1
0	218	9.063455140093	1
0	229	9.796194676594	1
0	235	9.976973609014	1
0	243	10.192773318821	1
0	255	10.417382471425	1
0	258	10.448077281643	1
0	278	10.95291967659	1
0	286	11.105866524102	1
0	301	11.607935762553	1
0	312	12.68948349699	1
0	323	13.222406520743	1
0	329	13.330414080529	1
0	334	13.521487029098	1
0	347	13.79225482576	1
0	364	14.985898952908	1
0	375	16.190386541671	1
0	381	16.327457797499	1
0	384	16.338804302809	1
0	403	16.964011772693	1
0	416	17.376960563232	1
0	422	17.509363555764	1
0	437	18.858610037297	1
0	448	19.716214642172	1
0	454	19.834005830583	1
0	457	19.920056803444	1
0	471	20.277877711416	1
0	488	20.981808264271	1
0	499	22.061046600963	1
0	510	23.309643723647	1
0	513	23.373954015211	1
0	523	23.642020977931	1
0	535	23.975517826005	1
0	546	24.194021334956	1
0	562	24.818592147806	1
0	568	25.017649614839	1
0	583	25.515204226129	1
0	586	25.611896795848	1
0	596	25.895688101886	1
0	601	25.943337383307	1
0	608	26.046487895639	1
0	621	26.343042549291	1
0	634	26.646723892614	1
0	649	27.074741388721	1
0	657	27.284363926629	1
0	673	28.64382120353	1
0	679	28.935844713769	1
0	690	29.128836879712	1
0	698	29.333826930782	1
0	708	29.479480706004	1
0	725	30.298324487445	1
0	731	30.564501362591	1
0	747	31.223217115421	1
0	758	32.648832270042	1
0	764	32.818423724132	1
0	767	32.907494514782	1
0	783	33.290036913515	1
0	789	33.359330491514	1
0	798	33.504694730008	1
0	801	33.543935651184	1
0	815	33.815294366864	1
0	827	34.171866413508	1
0	837	34.367785408784	1
0	847	34.534900549144	1
0	865	35.016936110896	1
0	873	35.166465987172	1
0	881	35.374632785712	1
0	898	36.516834348751	1
0	904	36.793362891904	1
0	915	37.048962720849	1
0	931	37.620712347547	1
0	937	37.86487638907	1
0	948	38.104598831573	1
0	964	40.032743192377	1
0	975	41.098781257407	1
0	986	41.808788513528	1
0	989	41.898339346338	1
0	996	42.087580434693	1
0	1016	42.695704274488	1
0	1022	42.856426032175	1
0	1032	43.103398968968	1
0	1046	43.418888984384	1
0	1054	43.669051360135	1
0	1070	44.108336364322	1
0	1081	44.561108533968	1
0	1092	45.042583390674	1
0	1101	45.375602363257	1
0	1109	45.510574416617	1
0	1117	45.751751262892	1
0	1129	45.985539082104	1
0	1132	45.986181636329	1
0	1149	46.48135991973	1
0	1155	46.524919862627	1
0	1167	46.785437631153	1
0	1184	47.341542331563	1
0	1195	48.02646379775	1
0	1204	48.360842475	1
0	1217	48.880144860023	1
0	1228	49.416209857574	1
0	1239	50.016673757269	1
0	1250	51.416873311487	1
0	1259	51.719369409334	1
0	1272	52.236231211355	1
0	1283	53.621748455086	1
0	1286	53.646314895816	1
0	1288	53.721432340533	1
0	1295	53.887663366859	1
0	1314	54.358951841837	1
0	1329	54.763027868952	1
0	1340	55.129831606904	1
0	1348	55.250448187886	1
0	1363	56.163493047559	1
0	1374	57.671703650733	1
0	1377	57.741476345989	1
0	1394	59.047061013201	1
0	1400	59.314376294578	1
0	1416	60.163308323124	1
0	1427	60.64775908931	1
0	1433	60.935431854511	1
0	1449	61.423164874644	1
0	1460	62.251999063175	1
0	1471	63.072647341003	1
0	1474	63.135890107872	1
0	1486	63.478105718544	1
0	1495	63.644259258506	1
0	1498	63.662463294031	1
0	1511	63.94225100636	1
0	1517	63.987467779032	1
0	1538	64.596859401872	1
0	1551	65.31862698628	1
0	1557	65.617963407088	1
0	1568	65.849629878952	1
0	1571	65.915868550724	1
0	1591	66.432075317623	1
0	1599	66.621475019632	1
0	1612	66.935125730777	1
0	1620	67.11161250397	1
0	1630	67.339372355687	1
0	1639	67.500145453685	1
0	1656	68.193560828284	1
0	1659	68.274976723314	1
0	1676	69.635245102215	1
0	1682	69.87643409342	1
0	1691	70.010689279249	1
0	1703	70.27818090859	1
0	1717	70.608356126615	1
0	1730	71.279401616994	1
0	1741	72.190983771877	1
0	1752	72.90718232026	1
0	1758	73.183934302838	1
0	1772	73.516466775895	1
0	1775	73.568909788847	1
0	1787	73.846719101755	1
0	1804	74.568726579166	1
0	1815	75.246444822628	1
0	1824	75.556492136793	1
0	1837	76.538809668011	1
0	1840	76.637638266249	1
0	1857	77.143294347747	1
0	1868	78.082930180258	1
0	1879	78.808256392679	1
0	1885	78.948752302395	1
0	1900	80.208171167915	1
0	1906	80.329858505805	1
0	1909	80.348535919398	1
0	1918	80.558307796282	1
0	1940	81.496481228561	1
0	1946	81.715902794873	1
0	1955	81.861586656199	1
0	1962	81.981010649088	1
0	1975	82.27162707373	1
0	1980	82.35861974546	1
0	2001	83.075637344912	1
0	2007	83.304389608018	1
0	2023	83.87281371291	1
0	2034	84.702082248292	1
0	2037	84.773708185237	1
0	2054	85.46904776646	1
0	2065	85.952858442193	1
0	2076	86.413578892566	1
0	2079	86.445873947407	1
0	2089	86.7542197314	1
0	2099	86.952993911124	1
0	2111	87.241291196128	1
0	2127	87.99537219957	1
0	2133	88.284677354767	1
0	2144	88.535822530619	1
0	2160	89.829519463799	1
0	2171	90.241686561866	1
0	2182	90.844076791971	1
0	2193	91.430222654293	1
0	2196	91.449330500279	1
0	2213	92.224069326214	1
0	2224	92.862128981482	1
0	2235	93.505298233236	1
0	2244	93.829439944054	1
0	2247	93.832665954498	1
0	2251	93.921105790012	1
0	2263	94.166432329054	1
0	2273	94.390344659357	1
0	2285	94.670249554275	1
0	2305	95.933240413193	1
0	2308	95.958934993116	1
0	2313	96.066675600303	1
0	2324	96.417526550538	1
0	2344	97.172731059356	1
0	2355	97.593890019692	1
0	2361	97.826506335108	1
0	2377	98.619810952936	1
0	2386	99.017445432198	1
0	2399	100.29725858318	1
0	2402	100.389865679272	1
0	2407	100.451576618565	1
0	2428	101.20444025186	1
0	2434	101.322306156441	1
0	2447	101.713590268147	1
0	2460	102.19794210854	1
0	2466	102.464465996966	1
0	2472	102.528415396594	1
0	2491	103.248366200401	1
0	2497	103.362533044222	1
0	2507	103.716169512213	1
0	2521	104.101073793115	1
0	2529	104.344974190317	1
0	2535	104.428564353962	1
0	2537	104.437268490482	1
0	2561	105.123210916019	1
0	2574	105.641294674842	1
0	2585	106.516427762279	1
0	2594	106.81775763452	1
0	2597	106.833172043134	1
0	2604	106.94531420229	1
0	2615	107.287613774329	1
0	2630	107.647485609782	1
0	2646	108.36492497536	1
0	2655	108.697646841699	1
0	2668	110.360163896084	1
0	2677	110.661014537366	1
0	2685	110.8052672202	1
0	2690	110.942611767623	1
0	2696	111.025972968044	1
0	2712	111.363141892023	1
0	2729	112.305055964651	1
0	2740	114.179173976138	1
0	2751	115.2586802787	1
0	2762	115.698165552626	1
0	2765	115.797194535683	1
0	2780	116.244069514328	1
0	2788	116.506218775233	1
0	2804	117.589658797706	1
0	2815	118.161260982925	1
0	2826	119.63903133103	1
0	2837	120.478983082488	1
0	2846	120.874855858632	1
0	2851	120.957770066199	1
0	2856	121.038860559947	1
0	2872	121.530950011941	1
0	2883	121.754560294038	1
0	2899	122.496791772739	1
0	2910	123.798354898024	1
0	2919	124.15739757685	1
0	2927	124.346697656679	1
0	2930	124.427690583133	1
0	2951	124.977148903941	1
0	2954	124.993427793221	1
0	2961	125.27312367692	1
0	2971	125.421910165703	1
0	2981	125.641982194674	1
0	3001	126.384296552084	1
0	3010	126.722558472093	1
0	3013	126.743168117239	1
0	3032	127.519072180053	1
0	3035	127.522784879588	1
0	3047	127.980628236395	1
0	3058	128.182595574018	1
0	3074	129.076728674911	1
0	3077	129.106310028989	1
0	3089	129.561855894951	1
0	3095	129.634717535846	1
0	3114	132.901827525264	1
0	3117	132.912386096492	1
0	3127	133.240595844098	1
0	3139	133.575328717942	1
0	3150	133.753945700963	1
0	3165	134.290804417295	1
0	3168	134.337603684034	1
0	3175	134.588236998845	1
0	3190	134.964652202139	1
0	3196	135.029690394704	1
0	3203	135.138741811753	1
0	3212	135.319869204071	1
0	3215	135.325206585909	1
0	3231	135.726805495823	1
0	3241	135.886805065543	1
0	3263	137.157827896682	1
0	3266	137.175718715803	1
0	3283	139.380978450078	1
0	3294	141.063371215622	1
0	3300	141.187817892106	1
0	3310	141.548601796819	1
0	3313	141.55338812017	1
0	3318	141.586876123813	1
0	3344	142.385954887254	1
0	3350	142.572983079001	1
0	3365	143.748386518149	1
0	3371	143.873604910722	1
0	3381	144.149726412056	1
0	3384	144.200829147212	1
0	3406	144.865014200714	1
0	3417	145.527015638906	1
0	3428	146.432146512543	1
0	3434	146.626415475275	1
0	3449	147.049695079471	1
0	3452	147.143211853776	1
0	3469	148.070498460104	1
0	3480	149.167536824854	1
0	3483	149.178423826076	1
0	3500	150.066880690653	1
0	3506	150.209484959262	1
0	3514	150.438530921734	1
0	3524	150.584623338009	1
0	3536	150.940303070729	1
0	3542	150.998151604843	1
0	3554	151.267485540977	1
0	3571	152.35464252832	1
0	3582	152.886930075894	1
0	3585	152.90084055002	1
0	3590	153.009111756794	1
0	3606	153.51151586941	1
0	3617	153.687585014005	1
0	3620	153.720890527469	1
0	3641	154.326888378476	1
0	3647	154.528266693949	1
0	3650	154.618982478318	1
0	3665	154.862637626523	1
0	3682	155.398497519886	1
0	3685	155.488571750683	1
0	3697	155.825216718571	1
0	3711	156.156454579857	1
0	3716	156.25602119798	1
0	3728	156.600586266247	1
0	3744	157.073603219699	1
0	3750	157.245199320512	1
0	3760	157.566001553252	1
0	3776	158.167172809371	1
0	3787	158.69280966132	1
0	3790	158.771377133816	1
0	3802	159.154765495115	1
0	3808	159.250985572914	1
0	3827	159.91257132448	1
0	3833	160.109557536257	1
0	3843	160.334245226994	1
0	3854	160.548184261551	1
0	3870	161.981088551471	1
0	3876	162.085052907803	1
0	3891	163.803635783099	1
0	3902	164.933010915849	1
0	3908	165.037312898249	1
0	3923	165.829675135228	1
0	3929	166.120494873367	1
0	3935	166.171358678112	1
0	3954	166.874000573055	1
0	3960	167.081549476497	1
0	3963	167.143151277683	1
0	3971	167.262329164835	1
0	3994	168.051822853294	1
0	4000	168.321732864067	1
0	4009	168.443713793811	1
0	4016	168.589244730351	1
0	4036	169.859541892446	1
0	4045	170.173087270066	1
0	4058	170.946395050428	1
0	4069	172.097859238525	1
0	4072	172.121775477186	1
0	4079	172.338717892458	1
0	4082	172.339553257325	1
0	4101	172.812138237956	1
0	4106	172.899782757867	1
0	4122	173.307214105355	1
0	4136	173.655114744704	1
0	4149	174.282477423566	1
0	4158	174.629978870198	1
0	4161	174.658620742844	1
0	4173	174.981256301105	1
0	4190	175.59586652569	1
0	4196	175.720659247105	1
0	4211	177.03641161648	1
0	4214	177.039199762863	1
0	4226	177.455553009472	1
0	4242	178.063933963411	1
0	4248	178.216523370877	1
0	4258	178.485308324389	1
0	4274	178.987448906036	1
0	4285	179.922171208559	1
0	4296	180.48240510807	1
0	4302	180.702597920636	1
0	4318	181.183388482031	1
0	4321	181.185264461013	1
0	4323	181.25677578199	1
0	4328	181.328170982682	1
0	4356	182.961531091736	1
0	4359	182.978341888908	1
0	4376	184.37768458421	1
0	4382	184.520660059451	1
0	4390	184.769390454481	1
0	4400	184.906484101047	1
0	4415	185.311713257473	1
0	4428	185.734568419153	1
0	4431	185.752764244606	1
0	4433	185.824995880025	1
0	4457	187.839717096408	1
0	4463	187.944481248237	1
0	4478	188.713013897477	1
0	4489	189.287903746671	1
0	4500	189.743295842301	1
0	4506	189.883431252257	1
0	4521	190.52767212152	1
0	4524	190.619669824629	1
0	4529	190.713401130482	1
0	4550	191.461576443234	1
0	4556	191.627028081104	1
0	4559	191.669979423781	1
0	4566	191.7972777285	1
0	4570	191.859774816085	1
0	4588	192.267682708797	1
0	4606	192.779861453095	1
0	4609	192.823244204312	1
0	4621	193.091941581746	1
0	4638	194.108771133603	1
0	4644	194.330956018023	1
0	4655	194.610140403581	1
0	4671	195.098054305541	1
0	4677	195.362856421852	1
0	4680	195.367598915635	1
0	4685	195.41737298622	1
0	4692	195.553794980961	1
0	4713	196.073490096313	1
0	4730	196.701365986808	1
0	4741	197.465326498819	1
0	4752	198.712906793004	1
0	4763	199.159773559364	1
0	4774	199.666491055416	1
0	4780	199.791186829635	1
1	2	0.035719610161	1
1	8	0.151781348769	1
1	23	0.832972759363	1
1	29	1.005841245725	1
1	39	1.265483079315	1
1	55	2.987586342986	1
1	66	3.566024683246	1
1	72	3.839644161821	1
1	88	5.556950543495	1
1	94	5.722635041323	1
1	107	6.070603967185	1
1	115	6.208461326522	1
1	125	6.521387107751	1
1	128	6.562219398936	1
1	133	6.595869790744	2
1	147	6.840510205238	1
1	154	6.981168798916	1
1	157	6.988386028337	1
1	171	7.300196520684	1
1	186	7.637821662849	1
1	203	8.14948556524	1
1	219	9.063455140093	1
1	230	9.796194676594	1
1	236	9.976973609014	1
1	244	10.192773318821	1
1	256	10.417382471425	1
1	259	10.448077281643	1
1	279	10.95291967659	1
1	287	11.105866524102	1
1	302	11.607935762553	1
1	313	12.68948349699	1
1	324	13.222406520743	1
1	330	13.330414080529	1
1	335	13.521487029098	1
1	348	13.79225482576	1
1	365	14.985898952908	1
1	376	16.190386541671	1
1	382	16.327457797499	1
1	385	16.338804302809	1
1	404	16.964011772693	1
1	417	17.376960563232	1
1	423	17.509363555764	1
1	438	18.858610037297	1
1	449	19.716214642172	1
1	455	19.834005830583	1
1	458	19.920056803444	1
1	472	20.277877711416	1
1	489	20.981808264271	1
1	500	22.061046600963	1
1	511	23.309643723647	1
1	514	23.373954015211	1
1	524	23.642020977931	1
1	536	23.975517826005	1
1	547	24.194021334956	1
1	563	24.818592147806	1
1	569	25.017649614839	1
1	584	25.515204226129	1
1	587	25.611896795848	1
1	597	25.895688101886	1
1	602	25.943337383307	1
1	609	26.046487895639	1
1	622	26.343042549291	1
1	635	26.646723892614	1
1	650	27.074741388721	1
1	658	27.284363926629	1
1	674	28.64382120353	1
1	680	28.935844713769	1
1	691	29.128836879712	1
1	699	29.333826930782	1
1	709	29.479480706004	1
1	726	30.298324487445	1
1	732	30.564501362591	1
1	748	31.223217115421	1
1	759	32.648832270042	1
1	765	32.818423724132	1
1	768	32.907494514782	1
1	784	33.290036913515	1
1	790	33.359330491514	1
1	799	33.504694730008	1
1	802	33.543935651184	1
1	816	33.815294366864	1
1	828	34.171866413508	1
1	838	34.367785408784	1
1	848	34.534900549144	1
1	866	35.016936110896	1
1	874	35.166465987172	1
1	882	35.374632785712	1
1	899	36.516834348751	1
1	905	36.793362891904	1
1	916	37.048962720849	1
1	932	37.620712347547	1
1	938	37.86487638907	1
1	949	38.104598831573	1
1	965	40.032743192377	1
1	976	41.098781257407	1
1	987	41.808788513528	1
1	990	41.898339346338	1
1	997	42.087580434693	1
1	1017	42.695704274488	1
1	1023	42.856426032175	1
1	1033	43.103398968968	1
1	1047	43.418888984384	1
1	1055	43.669051360135	1
1	1071	44.108336364322	1
1	1082	44.561108533968	1
1	1093	45.042583390674	1
1	1102	45.375602363257	1
1	1110	45.510574416617	1
1	1118	45.751751262892	1
1	1130	45.985539082104	1
1	1133	45.986181636329	1
1	1150	46.48135991973	1
1	1156	46.524919862627	1
1	1168	46.785437631153	1
1	1185	47.341542331563	1
1	1196	48.02646379775	1
1	1205	48.360842475	1
1	1218	48.880144860023	1
1	1229	49.416209857574	1
1	1240	50.016673757269	1
1	1251	51.416873311487	1
1	1260	51.719369409334	1
1	1273	52.236231211355	1
1	1284	53.621748455086	1
1	1287	53.646314895816	1
1	1289	53.721432340533	2
1	1296	53.887663366859	1
1	1315	54.358951841837	1
1	1330	54.763027868952	1
1	1341	55.129831606904	1
1	1349	55.250448187886	1
1	1364	56.163493047559	1
1	1375	57.671703650733	1
1	1378	57.741476345989	1
1	1395	59.047061013201	1
1	1401	59.314376294578	1
1	1417	60.163308323124	1
1	1428	60.64775908931	1
1	1434	60.935431854511	1
1	1450	61.423164874644	1
1	1461	62.251999063175	1
1	1472	63.072647341003	1
1	1475	63.135890107872	1
1	1487	63.478105718544	1
1	1496	63.644259258506	1
1	1499	63.662463294031	1
1	1512	63.94225100636	1
1	1518	63.987467779032	1
1	1539	64.596859401872	1
1	1552	65.31862698628	1
1	1558	65.617963407088	1
1	1569	65.849629878952	1
1	1572	65.915868550724	1
1	1592	66.432075317623	1
1	1600	66.621475019632	1
1	1613	66.935125730777	1
1	1621	67.11161250397	1
1	1631	67.339372355687	1
1	1640	67.500145453685	1
1	1657	68.193560828284	1
1	1660	68.274976723314	1
1	1677	69.635245102215	1
1	1683	69.87643409342	1
1	1692	70.010689279249	1
1	1704	70.27818090859	1
1	1718	70.608356126615	1
1	1731	71.279401616994	1
1	1742	72.190983771877	1
1	1753	72.90718232026	1
1	1759	73.183934302838	1
1	1773	73.516466775895	1
1	1776	73.568909788847	1
1	1788	73.846719101755	1
1	1805	74.568726579166	1
1	1816	75.246444822628	1
1	1825	75.556492136793	1
1	1838	76.538809668011	1
1	1841	76.637638266249	1
1	1858	77.143294347747	1
1	1869	78.082930180258	1
1	1880	78.808256392679	1
1	1886	78.948752302395	1
1	1901	80.208171167915	1
1	1907	80.329858505805	1
1	1910	80.348535919398	1
1	1919	80.558307796282	1
1	1941	81.496481228561	1
1	1947	81.715902794873	1
1	1956	81.861586656199	1
1	1963	81.981010649088	1
1	1976	82.27162707373	1
1	1981	82.35861974546	1
1	2002	83.075637344912	1
1	2008	83.304389608018	1
1	2024	83.87281371291	1
1	2035	84.702082248292	1
1	2038	84.773708185237	1
1	2055	85.46904776646	1
1	2066	85.952858442193	1
1	2077	86.413578892566	1
1	2080	86.445873947407	1
1	2090	86.7542197314	1
1	2100	86.952993911124	1
1	2112	87.241291196128	1
1	2128	87.99537219957	1
1	2134	88.284677354767	1
1	2145	88.535822530619	1
1	2161	89.829519463799	1
1	2172	90.241686561866	1
1	2183	90.844076791971	1
1	2194	91.430222654293	1
1	2197	91.449330500279	1
1	2214	92.224069326214	1
1	2225	92.862128981482	1
1	2236	93.505298233236	1
1	2245	93.829439944054	1
1	2248	93.832665954498	1
1	2252	93.921105790012	2
1	2264	94.166432329054	1
1	2274	94.390344659357	1
1	2286	94.670249554275	1
1	2306	95.933240413193	1
1	2309	95.958934993116	1
1	2314	96.066675600303	1
1	2325	96.417526550538	1
1	2345	97.172731059356	1
1	2356	97.593890019692	1
1	2362	97.826506335108	1
1	2378	98.619810952936	1
1	2387	99.017445432198	1
1	2400	100.29725858318	1
1	2403	100.389865679272	1
1	2408	100.451576618565	1
1	2429	101.20444025186	1
1	2435	101.322306156441	1
1	2448	101.713590268147	1
1	2461	102.19794210854	1
1	2467	102.464465996966	1
1	2473	102.528415396594	1
1	2492	103.248366200401	1
1	2498	103.362533044222	1
1	2508	103.716169512213	1
1	2522	104.101073793115	1
1	2530	104.344974190317	1
1	2536	104.428564353962	1
1	2538	104.437268490482	2
1	2562	105.123210916019	1
1	2575	105.641294674842	1
1	2586	106.516427762279	1
1	2595	106.81775763452	1
1	2598	106.833172043134	1
1	2605	106.94531420229	1
1	2616	107.287613774329	1
1	2631	107.647485609782	1
1	2647	108.36492497536	1
1	2656	108.697646841699	1
1	2669	110.360163896084	1
1	2678	110.661014537366	1
1	2686	110.8052672202	1
1	2691	110.942611767623	1
1	2697	111.025972968044	1
1	2713	111.363141892023	1
1	2730	112.305055964651	1
1	2741	114.179173976138	1
1	2752	115.2586802787	1
1	2763	115.698165552626	1
1	2766	115.797194535683	1
1	2781	116.244069514328	1
1	2789	116.506218775233	1
1	2805	117.589658797706	1
1	2816	118.161260982925	1
1	2827	119.63903133103	1
1	2838	120.478983082488	1
1	2847	120.874855858632	1
1	2852	120.957770066199	1
1	2857	121.038860559947	1
1	2873	121.530950011941	1
1	2884	121.754560294038	1
1	2900	122.496791772739	1
1	2911	123.798354898024	1
1	2920	124.15739757685	1
1	2928	124.346697656679	1
1	2931	124.427690583133	1
1	2952	124.977148903941	1
1	2955	124.993427793221	1
1	2962	125.27312367692	1
1	2972	125.421910165703	1
1	2982	125.641982194674	1
1	3002	126.384296552084	1
1	3011	126.722558472093	1
1	3014	126.743168117239	1
1	3033	127.519072180053	1
1	3036	127.522784879588	1
1	3048	127.980628236395	1
1	3059	128.182595574018	1
1	3075	129.076728674911	1
1	3078	129.106310028989	1
1	3090	129.561855894951	1
1	3096	129.634717535846	1
1	3115	132.901827525264	1
1	3118	132.912386096492	1
1	3128	133.240595844098	1
1	3140	133.575328717942	1
1	3151	133.753945700963	1
1	3166	134.290804417295	1
1	3169	134.337603684034	1
1	3176	134.588236998845	1
1	3191	134.964652202139	1
1	3197	135.029690394704	1
1	3204	135.138741811753	1
1	3213	135.319869204071	1
1	3216	135.325206585909	1
1	3232	135.726805495823	1
1	3242	135.886805065543	1
1	3264	137.157827896682	1
1	3267	137.175718715803	1
1	3284	139.380978450078	1
1	3295	141.063371215622	1
1	3301	141.187817892106	1
1	3311	141.548601796819	1
1	3314	141.55338812017	1
1	3319	141.586876123813	2
1	3345	142.385954887254	1
1	3351	142.572983079001	1
1	3366	143.748386518149	1
1	3372	143.873604910722	1
1	3382	144.149726412056	1
1	3385	144.200829147212	1
1	3407	144.865014200714	1
1	3418	145.527015638906	1
1	3429	146.432146512543	1
1	3435	146.626415475275	1
1	3450	147.049695079471	1
1	3453	147.143211853776	1
1	3470	148.070498460104	1
1	3481	149.167536824854	1
1	3484	149.178423826076	1
1	3501	150.066880690653	1
1	3507	150.209484959262	1
1	3515	150.438530921734	1
1	3525	150.584623338009	1
1	3537	150.940303070729	1
1	3543	150.998151604843	1
1	3555	151.267485540977	1
1	3572	152.35464252832	1
1	3583	152.886930075894	1
1	3586	152.90084055002	1
1	3591	153.009111756794	1
1	3607	153.51151586941	1
1	3618	153.687585014005	1
1	3621	153.720890527469	1
1	3642	154.326888378476	1
1	3648	154.528266693949	1
1	3651	154.618982478318	1
1	3666	154.862637626523	1
1	3683	155.398497519886	1
1	3686	155.488571750683	1
1	3698	155.825216718571	1
1	3712	156.156454579857	1
1	3717	156.25602119798	1
1	3729	156.600586266247	1
1	3745	157.073603219699	1
1	3751	157.245199320512	1
1	3761	157.566001553252	1
1	3777	158.167172809371	1
1	3788	158.69280966132	1
1	3791	158.771377133816	1
1	3803	159.154765495115	1
1	3809	159.250985572914	1
1	3828	159.91257132448	1
1	3834	160.109557536257	1
1	3844	160.334245226994	1
1	3855	160.548184261551	1
1	3871	161.981088551471	1
1	3877	162.085052907803	1
1	3892	163.803635783099	1
1	3903	164.933010915849	1
1	3909	165.037312898249	1
1	3924	165.829675135228	1
1	3930	166.120494873367	1
1	3936	166.171358678112	1
1	3955	166.874000573055	1
1	3961	167.081549476497	1
1	3964	167.143151277683	1
1	3972	167.262329164835	1
1	3995	168.051822853294	1
1	4001	168.321732864067	1
1	4010	168.443713793811	1
1	4017	168.589244730351	1
1	4037	169.859541892446	1
1	4046	170.173087270066	1
1	4059	170.946395050428	1
1	4070	172.097859238525	1
1	4073	172.121775477186	1
1	4080	172.338717892458	1
1	4083	172.339553257325	1
1	4102	172.812138237956	1
1	4107	172.899782757867	1
1	4123	173.307214105355	1
1	4137	173.655114744704	1
1	4150	174.282477423566	1
1	4159	174.629978870198	1
1	4162	174.658620742844	1
1	4174	174.981256301105	1
1	4191	175.59586652569	1
1	4197	175.720659247105	1
1	4212	177.03641161648	1
1	4215	177.039199762863	1
1	4227	177.455553009472	1
1	4243	178.063933963411	1
1	4249	178.216523370877	1
1	4259	178.485308324389	1
1	4275	178.987448906036	1
1	4286	179.922171208559	1
1	4297	180.48240510807	1
1	4303	180.702597920636	1
1	4319	181.183388482031	1
1	4322	181.185264461013	1
1	4324	181.25677578199	2
1	4329	181.328170982682	2
1	4357	182.961531091736	1
1	4360	182.978341888908	1
1	4377	184.37768458421	1
1	4383	184.520660059451	1
1	4391	184.769390454481	1
1	4401	184.906484101047	1
1	4416	185.311713257473	1
1	4429	185.734568419153	1
1	4432	185.752764244606	1
1	4434	185.824995880025	2
1	4458	187.839717096408	1
1	4464	187.944481248237	1
1	4479	188.713013897477	1
1	4490	189.287903746671	1
1	4501	189.743295842301	1
1	4507	189.883431252257	1
1	4522	190.52767212152	1
1	4525	190.619669824629	1
1	4530	190.713401130482	1
1	4551	191.461576443234	1
1	4557	191.627028081104	1
1	4560	191.669979423781	1
1	4567	191.7972777285	1
1	4571	191.859774816085	1
1	4589	192.267682708797	1
1	4607	192.779861453095	1
1	4610	192.823244204312	1
1	4622	193.091941581746	1
1	4639	194.108771133603	1
1	4645	194.330956018023	1
1	4656	194.610140403581	1
1	4672	195.098054305541	1
1	4678	195.362856421852	1
1	4681	195.367598915635	1
1	4686	195.41737298622	2
1	4693	195.553794980961	2
1	4714	196.073490096313	1
1	4731	196.701365986808	1
1	4742	197.465326498819	1
1	4753	198.712906793004	1
1	4764	199.159773559364	1
1	4775	199.666491055416	1
1	4781	199.791186829635	1
2	5	0.135819610161	1
2	11	0.251881348769	1
2	26	0.933072759363	1
2	32	1.105941245725	1
2	45	1.365583079315	1
2	58	3.087686342986	1
2	69	3.666124683246	1
2	78	3.939744161821	1
2	91	5.657050543495	1
2	97	5.822735041323	1
2	112	6.170703967185	1
2	118	6.308561326522	1
2	135	6.621487107751	1
2	140	6.721487107751	1
2	143	6.821487107751	1
2	152	6.940610205238	2
2	162	7.081268798916	2
2	166	7.181268798916	3
2	176	7.400296520684	3
2	191	7.737921662849	2
2	209	8.24958556524	1
2	222	9.163555140093	1
2	233	9.896294676594	1
2	239	10.077073609014	1
2	249	10.292873318821	1
2	264	10.517482471425	1
2	269	10.617482471425	1
2	284	11.05301967659	1
2	290	11.205966524102	1
2	305	11.708035762553	1
2	316	12.78958349699	1
2	327	13.322506520743	1
2	333	13.430514080529	1
2	341	13.621587029098	1
2	353	13.89235482576	1
2	368	15.085998952908	1
2	379	16.290486541671	1
2	387	16.427557797499	1
2	392	16.527557797499	1
2	409	17.064111772693	1
2	420	17.477060563232	1
2	426	17.609463555764	1
2	441	18.958710037297	1
2	452	19.816314642172	1
2	460	19.934105830583	1
2	465	20.034105830583	1
2	477	20.377977711416	1
2	492	21.081908264271	1
2	503	22.161146600963	1
2	516	23.409743723647	1
2	519	23.509743723647	1
2	529	23.742120977931	1
2	542	24.075617826005	1
2	553	24.294121334956	1
2	566	24.918692147806	1
2	572	25.117749614839	1
2	589	25.615304226129	1
2	592	25.715304226129	1
2	604	25.995788101886	1
2	611	26.095788101886	1
2	615	26.195788101886	2
2	628	26.443142549291	1
2	640	26.746823892614	1
2	655	27.174841388721	1
2	664	27.384463926629	1
2	677	28.74392120353	1
2	686	29.035944713769	1
2	694	29.228936879712	1
2	704	29.433926930782	1
2	714	29.579580706004	1
2	729	30.398424487445	1
2	738	30.664601362591	1
2	751	31.323317115421	1
2	762	32.748932270042	1
2	770	32.918523724132	1
2	775	33.018523724132	1
2	792	33.390136913515	1
2	797	33.490136913515	1
2	807	33.604794730008	1
2	811	33.704794730008	2
2	821	33.915394366864	2
2	834	34.271966413508	1
2	844	34.467885408784	1
2	854	34.635000549144	1
2	871	35.117036110896	1
2	877	35.266565987172	1
2	887	35.474732785712	1
2	902	36.616934348751	1
2	911	36.893462891904	1
2	922	37.149062720849	1
2	935	37.720812347547	1
2	944	37.96497638907	1
2	955	38.204698831573	1
2	968	40.132843192377	1
2	979	41.198881257407	1
2	992	41.908888513528	1
2	995	42.008888513528	1
2	1003	42.187680434693	1
2	1020	42.795804274488	1
2	1026	42.956526032175	1
2	1039	43.203498968968	1
2	1052	43.518988984384	1
2	1061	43.769151360135	1
2	1074	44.208436364322	1
2	1085	44.661208533968	1
2	1096	45.142683390674	1
2	1107	45.475702363257	1
2	1113	45.610674416617	1
2	1123	45.851851262892	1
2	1138	46.085639082104	1
2	1143	46.185639082104	1
2	1158	46.58145991973	1
2	1163	46.68145991973	1
2	1173	46.885537631153	1
2	1188	47.441642331563	1
2	1199	48.12656379775	1
2	1210	48.460942475	1
2	1221	48.980244860023	1
2	1232	49.516309857574	1
2	1243	50.116773757269	1
2	1254	51.516973311487	1
2	1265	51.819469409334	1
2	1276	52.336331211355	1
2	1291	53.721848455086	1
2	1294	53.821848455086	1
2	1299	53.921848455086	1
2	1303	54.021848455086	2
2	1320	54.459051841837	1
2	1335	54.863127868952	1
2	1346	55.229931606904	1
2	1352	55.350548187886	1
2	1367	56.263593047559	1
2	1380	57.771803650733	1
2	1383	57.871803650733	1
2	1398	59.147161013201	1
2	1407	59.414476294578	1
2	1420	60.263408323124	1
2	1431	60.74785908931	1
2	1440	61.035531854511	1
2	1453	61.523264874644	1
2	1464	62.352099063175	1
2	1477	63.172747341003	1
2	1480	63.272747341003	1
2	1493	63.578205718544	1
2	1503	63.744359258506	1
2	1508	63.844359258506	1
2	1520	64.04235100636	1
2	1524	64.14235100636	2
2	1544	64.696959401872	1
2	1555	65.41872698628	1
2	1564	65.718063407088	1
2	1577	65.949729878952	1
2	1582	66.049729878952	1
2	1597	66.532175317623	1
2	1603	66.721575019632	1
2	1618	67.035225730777	1
2	1624	67.21171250397	1
2	1637	67.439472355687	1
2	1645	67.600245453685	1
2	1662	68.293660828284	1
2	1665	68.393660828284	1
2	1680	69.735345102215	1
2	1689	69.97653409342	1
2	1697	70.110789279249	1
2	1710	70.37828090859	1
2	1723	70.708456126615	1
2	1734	71.379501616994	1
2	1745	72.291083771877	1
2	1756	73.00728232026	1
2	1765	73.284034302838	1
2	1780	73.616566775895	1
2	1783	73.716566775895	1
2	1793	73.946819101755	1
2	1808	74.668826579166	1
2	1819	75.346544822628	1
2	1830	75.656592136793	1
2	1843	76.638909668011	1
2	1846	76.738909668011	1
2	1861	77.243394347747	1
2	1872	78.183030180258	1
2	1883	78.908356392679	1
2	1889	79.048852302395	1
2	1904	80.308271167915	1
2	1912	80.429958505805	1
2	1917	80.529958505805	1
2	1924	80.658407796282	2
2	1944	81.596581228561	1
2	1953	81.816002794873	1
2	1961	81.961686656199	1
2	1969	82.081110649088	1
2	1983	82.37172707373	1
2	1988	82.47172707373	1
2	2005	83.175737344912	1
2	2014	83.404489608018	1
2	2027	83.97291371291	1
2	2040	84.802182248292	1
2	2043	84.902182248292	1
2	2058	85.56914776646	1
2	2069	86.052958442193	1
2	2082	86.513678892566	1
2	2085	86.613678892566	1
2	2095	86.8543197314	1
2	2105	87.053093911124	1
2	2118	87.341391196128	1
2	2131	88.09547219957	1
2	2140	88.384777354767	1
2	2151	88.635922530619	1
2	2164	89.929619463799	1
2	2175	90.341786561866	1
2	2186	90.944176791971	1
2	2199	91.530322654293	1
2	2202	91.630322654293	1
2	2217	92.324169326214	1
2	2228	92.962228981482	1
2	2239	93.605398233236	1
2	2254	93.929539944054	1
2	2257	94.029539944054	1
2	2260	94.129539944054	1
2	2269	94.266532329054	2
2	2279	94.490444659357	2
2	2292	94.770349554275	1
2	2311	96.033340413193	1
2	2316	96.133340413193	1
2	2319	96.233340413193	1
2	2331	96.517626550538	1
2	2348	97.272831059356	1
2	2359	97.693990019692	1
2	2368	97.926606335108	1
2	2381	98.719910952936	1
2	2392	99.117545432198	1
2	2405	100.39735858318	1
2	2410	100.49735858318	1
2	2413	100.59735858318	1
2	2432	101.30454025186	1
2	2438	101.422406156441	1