version 3
run BaseVersion-17-20240511-20:48:36-11938
attr configname BaseVersion
attr datetime 20240511-20:48:36
attr datetimef 20240511-204836
attr experiment BaseVersion
attr inifile omnetpp.ini
attr iterationvars $genInterval=0.95
attr iterationvarsd genInterval=0.95
attr iterationvarsf genInterval=0.95-
attr measurement $genInterval=0.95
attr network Network
attr processid 11938
attr repetition 0
attr replication #0
attr resultdir results
attr runnumber 17
attr seedset 17
itervar genInterval 0.95
config network Network
config sim-time-limit 200s
config Network.nodeTx.gen.generationInterval exponential(0.95)
config Network.nodeTx.gen.packetByteSize 12500
config Network.nodeTx.queue.bufferSize 200
config Network.nodeRx.queue.bufferSize 200
config Network.queue.bufferSize 200

vector 0 Network.nodeTx.gen packetGen ETV
vector 1 Network.nodeTx.queue bufferSize ETV
vector 2 Network.queue bufferSize ETV
vector 3 Network.nodeRx.queue bufferSize ETV
vector 4 Network.nodeRx.sink Delay ETV
vector 5 Network.nodeRx.sink packetUsed ETV
0	1	0.331628297639	1
0	7	0.52221853896	1
0	22	1.240676724659	1
0	33	3.007106139616	1
0	39	3.209076433119	1
0	55	5.296234087589	1
0	58	5.363033865548	1
0	75	6.924966629262	1
0	86	8.394041748532	1
0	97	8.895652396449	1
0	108	9.910331847267	1
0	114	10.013589785305	1
0	129	10.9776388213	1
0	135	11.213069549287	1
0	151	12.027300948618	1
0	162	12.971218467508	1
0	165	13.009072488968	1
0	182	14.876364683925	1
0	193	15.297097534219	1
0	196	15.337138572399	1
0	213	18.104413908059	1
0	224	19.393557030633	1
0	227	19.452383817287	1
0	244	20.255077904576	1
0	255	22.150717437323	1
0	258	22.183887365618	1
0	275	24.176926296804	1
0	281	24.407515578245	1
0	284	24.457438622538	1
0	306	25.092598405729	1
0	317	26.096517038501	1
0	326	26.399020109108	1
0	339	27.161306972933	1
0	345	27.281738146394	1
0	360	28.146326598342	1
0	369	28.484671319954	1
0	382	29.112369955915	1
0	393	29.563221515482	1
0	402	29.879251297155	1
0	405	29.880319601773	1
0	417	30.216079273615	1
0	434	30.832992734766	1
0	445	31.616187719539	1
0	456	32.322748995931	1
0	467	32.801795644144	1
0	470	32.846988067704	1
0	487	34.323743809285	1
0	496	34.697260268218	1
0	509	35.212271849359	1
0	520	35.704867752827	1
0	526	35.852471788726	1
0	536	36.186921282931	1
0	547	36.342328172918	1
0	562	37.381650521923	1
0	565	37.435635012021	1
0	582	38.128207321281	1
0	593	39.330888427267	1
0	604	40.68033368026	1
0	613	41.008805237207	1
0	621	41.193305891746	1
0	629	41.403837357421	1
0	646	42.086364312509	1
0	657	43.777375972062	1
0	668	45.276817161837	1
0	679	46.07416084209	1
0	690	46.977538182184	1
0	693	47.059169836654	1
0	698	47.121382681307	1
0	719	47.869464670154	1
0	730	48.287844930965	1
0	736	48.452303767629	1
0	751	49.19321687343	1
0	762	50.266116066763	1
0	773	51.818700676785	1
0	779	51.938494548377	1
0	787	52.178296245144	1
0	804	52.737637314156	1
0	815	55.884471127544	1
0	826	57.964115708569	1
0	837	59.574821582955	1
0	848	61.090897161392	1
0	857	61.468078265669	1
0	862	61.534957927824	1
0	879	62.120111932172	1
0	890	65.196939744959	1
0	901	66.565405153124	1
0	912	67.588056705925	1
0	915	67.636843496652	1
0	932	68.842017347851	1
0	943	70.531670178007	1
0	954	71.824549837366	1
0	957	71.833990241235	1
0	974	73.911550175631	1
0	980	74.139220017292	1
0	989	74.275837269875	1
0	999	74.461434691684	1
0	1016	75.886880736614	1
0	1027	78.318126427048	1
0	1038	80.047227617705	1
0	1049	81.850383928159	1
0	1060	83.529865735908	1
0	1066	83.779848643358	1
0	1069	83.807959627173	1
0	1091	85.481272090331	1
0	1102	85.951437001369	1
0	1111	86.274529527416	1
0	1124	86.820706690094	1
0	1135	89.710757315901	1
0	1146	90.409285769299	1
0	1155	90.806369749776	1
0	1168	91.451413255552	1
0	1179	92.14829303241	1
0	1185	92.281060863786	1
0	1200	94.713262658632	1
0	1211	98.664720834003	1
0	1214	98.674936420584	1
0	1216	98.739498592909	1
0	1233	99.18171017574	1
0	1250	100.004217737796	1
0	1261	101.448636247776	1
0	1272	102.274515990414	1
0	1283	102.938222384977	1
0	1294	105.870383978504	1
0	1297	105.928579461331	1
0	1304	106.137535158237	1
0	1317	106.380446758716	1
0	1320	106.463099340265	1
0	1343	109.459038725773	1
0	1354	111.504384221971	1
0	1360	111.675296229556	1
0	1363	111.690325877695	1
0	1379	112.108564441112	1
0	1395	113.616832145707	1
0	1406	117.190261013441	1
0	1417	118.57900816946	1
0	1428	119.149356724076	1
0	1439	121.102620522435	1
0	1450	122.147688874391	1
0	1461	124.502026275462	1
0	1472	124.976432049755	1
0	1481	125.280382637681	1
0	1494	126.277308514172	1
0	1500	126.533510663118	1
0	1516	127.760475589312	1
0	1525	128.113702079863	1
0	1538	130.433447861139	1
0	1549	131.628097278892	1
0	1555	131.927792841618	1
0	1561	132.009834270367	1
0	1578	132.483411392764	1
0	1591	133.552567952184	1
0	1602	134.619879641002	1
0	1613	136.477728045615	1
0	1624	137.114975753089	1
0	1635	138.236518879892	1
0	1646	138.942531562445	1
0	1657	140.403162812505	1
0	1666	140.78545884665	1
0	1679	141.199510435697	1
0	1690	144.233769219953	1
0	1696	144.470041469947	1
0	1707	144.719164456068	1
0	1718	144.986618794407	1
0	1734	146.348082674098	1
0	1745	147.582888582504	1
0	1751	147.747549805421	1
0	1754	147.810512305871	1
0	1775	151.557558994172	1
0	1786	152.131981795448	1
0	1792	152.405747880951	1
0	1808	153.041108489111	1
0	1814	153.20490933035	1
0	1829	154.177789408753	1
0	1840	154.916375262276	1
0	1846	155.023001740364	1
0	1851	155.175803150842	1
0	1871	155.985583823998	1
0	1882	156.879811334795	1
0	1893	159.945991735548	1
0	1904	160.74393395413	1
0	1915	161.432694052789	1
0	1926	163.221348132081	1
0	1937	164.022733250673	1
0	1940	164.039507444897	1
0	1957	168.241741335368	1
0	1968	168.673137809185	1
0	1979	170.37267728705	1
0	1990	171.29741099	1
0	2001	171.95238034551	1
0	2007	172.200125094475	1
0	2013	172.279493911296	1
0	2032	172.872413484012	1
0	2043	174.818305339773	1
0	2054	175.524781571774	1
0	2065	176.710927038567	1
0	2076	177.799258774974	1
0	2087	179.050585930639	1
0	2093	179.177066987489	1
0	2108	180.825425696294	1
0	2119	181.300028901901	1
0	2130	182.598118612997	1
0	2136	182.737819059753	1
0	2151	183.244014356369	1
0	2162	183.837758016239	1
0	2173	184.524607079956	1
0	2184	185.187413246124	1
0	2195	186.968022071355	1
0	2201	187.102872623943	1
0	2216	188.962989246315	1
0	2227	191.56551352263	1
0	2236	191.918717650726	1
0	2249	192.787400708827	1
0	2255	192.908180228583	1
0	2270	193.67506223059	1
0	2281	194.374233819083	1
0	2292	197.538565852	1
0	2303	198.104699212343	1
0	2309	198.261634888427	1
1	2	0.331628297639	1
1	8	0.52221853896	1
1	23	1.240676724659	1
1	34	3.007106139616	1
1	40	3.209076433119	1
1	56	5.296234087589	1
1	59	5.363033865548	1
1	76	6.924966629262	1
1	87	8.394041748532	1
1	98	8.895652396449	1
1	109	9.910331847267	1
1	115	10.013589785305	1
1	130	10.9776388213	1
1	136	11.213069549287	1
1	152	12.027300948618	1
1	163	12.971218467508	1
1	166	13.009072488968	1
1	183	14.876364683925	1
1	194	15.297097534219	1
1	197	15.337138572399	1
1	214	18.104413908059	1
1	225	19.393557030633	1
1	228	19.452383817287	1
1	245	20.255077904576	1
1	256	22.150717437323	1
1	259	22.183887365618	1
1	276	24.176926296804	1
1	282	24.407515578245	1
1	285	24.457438622538	1
1	307	25.092598405729	1
1	318	26.096517038501	1
1	327	26.399020109108	1
1	340	27.161306972933	1
1	346	27.281738146394	1
1	361	28.146326598342	1
1	370	28.484671319954	1
1	383	29.112369955915	1
1	394	29.563221515482	1
1	403	29.879251297155	1
1	406	29.880319601773	1
1	418	30.216079273615	1
1	435	30.832992734766	1
1	446	31.616187719539	1
1	457	32.322748995931	1
1	468	32.801795644144	1
1	471	32.846988067704	1
1	488	34.323743809285	1
1	497	34.697260268218	1
1	510	35.212271849359	1
1	521	35.704867752827	1
1	527	35.852471788726	1
1	537	36.186921282931	1
1	548	36.342328172918	1
1	563	37.381650521923	1
1	566	37.435635012021	1
1	583	38.128207321281	1
1	594	39.330888427267	1
1	605	40.68033368026	1
1	614	41.008805237207	1
1	622	41.193305891746	1
1	630	41.403837357421	1
1	647	42.086364312509	1
1	658	43.777375972062	1
1	669	45.276817161837	1
1	680	46.07416084209	1
1	691	46.977538182184	1
1	694	47.059169836654	1
1	699	47.121382681307	1
1	720	47.869464670154	1
1	731	48.287844930965	1
1	737	48.452303767629	1
1	752	49.19321687343	1
1	763	50.266116066763	1
1	774	51.818700676785	1
1	780	51.938494548377	1
1	788	52.178296245144	1
1	805	52.737637314156	1
1	816	55.884471127544	1
1	827	57.964115708569	1
1	838	59.574821582955	1
1	849	61.090897161392	1
1	858	61.468078265669	1
1	863	61.534957927824	1
1	880	62.120111932172	1
1	891	65.196939744959	1
1	902	66.565405153124	1
1	913	67.588056705925	1
1	916	67.636843496652	1
1	933	68.842017347851	1
1	944	70.531670178007	1
1	955	71.824549837366	1
1	958	71.833990241235	1
1	975	73.911550175631	1
1	981	74.139220017292	1
1	990	74.275837269875	1
1	1000	74.461434691684	1
1	1017	75.886880736614	1
1	1028	78.318126427048	1
1	1039	80.047227617705	1
1	1050	81.850383928159	1
1	1061	83.529865735908	1
1	1067	83.779848643358	1
1	1070	83.807959627173	1
1	1092	85.481272090331	1
1	1103	85.951437001369	1
1	1112	86.274529527416	1
1	1125	86.820706690094	1
1	1136	89.710757315901	1
1	1147	90.409285769299	1
1	1156	90.806369749776	1
1	1169	91.451413255552	1
1	1180	92.14829303241	1
1	1186	92.281060863786	1
1	1201	94.713262658632	1
1	1212	98.664720834003	1
1	1215	98.674936420584	1
1	1217	98.739498592909	2
1	1234	99.18171017574	1
1	1251	100.004217737796	1
1	1262	101.448636247776	1
1	1273	102.274515990414	1
1	1284	102.938222384977	1
1	1295	105.870383978504	1
1	1298	105.928579461331	1
1	1305	106.137535158237	1
1	1318	106.380446758716	1
1	1321	106.463099340265	1
1	1344	109.459038725773	1
1	1355	111.504384221971	1
1	1361	111.675296229556	1
1	1364	111.690325877695	1
1	1380	112.108564441112	1
1	1396	113.616832145707	1
1	1407	117.190261013441	1
1	1418	118.57900816946	1
1	1429	119.149356724076	1
1	1440	121.102620522435	1
1	1451	122.147688874391	1
1	1462	124.502026275462	1
1	1473	124.976432049755	1
1	1482	125.280382637681	1
1	1495	126.277308514172	1
1	1501	126.533510663118	1
1	1517	127.760475589312	1
1	1526	128.113702079863	1
1	1539	130.433447861139	1
1	1550	131.628097278892	1
1	1556	131.927792841618	1
1	1562	132.009834270367	1
1	1579	132.483411392764	1
1	1592	133.552567952184	1
1	1603	134.619879641002	1
1	1614	136.477728045615	1
1	1625	137.114975753089	1
1	1636	138.236518879892	1
1	1647	138.942531562445	1
1	1658	140.403162812505	1
1	1667	140.78545884665	1
1	1680	141.199510435697	1
1	1691	144.233769219953	1
1	1697	144.470041469947	1
1	1708	144.719164456068	1
1	1719	144.986618794407	1
1	1735	146.348082674098	1
1	1746	147.582888582504	1
1	1752	147.747549805421	1
1	1755	147.810512305871	1
1	1776	151.557558994172	1
1	1787	152.131981795448	1
1	1793	152.405747880951	1
1	1809	153.041108489111	1
1	1815	153.20490933035	1
1	1830	154.177789408753	1
1	1841	154.916375262276	1
1	1847	155.023001740364	1
1	1852	155.175803150842	1
1	1872	155.985583823998	1
1	1883	156.879811334795	1
1	1894	159.945991735548	1
1	1905	160.74393395413	1
1	1916	161.432694052789	1
1	1927	163.221348132081	1
1	1938	164.022733250673	1
1	1941	164.039507444897	1
1	1958	168.241741335368	1
1	1969	168.673137809185	1
1	1980	170.37267728705	1
1	1991	171.29741099	1
1	2002	171.95238034551	1
1	2008	172.200125094475	1
1	2014	172.279493911296	1
1	2033	172.872413484012	1
1	2044	174.818305339773	1
1	2055	175.524781571774	1
1	2066	176.710927038567	1
1	2077	177.799258774974	1
1	2088	179.050585930639	1
1	2094	179.177066987489	1
1	2109	180.825425696294	1
1	2120	181.300028901901	1
1	2131	182.598118612997	1
1	2137	182.737819059753	1
1	2152	183.244014356369	1
1	2163	183.837758016239	1
1	2174	184.524607079956	1
1	2185	185.187413246124	1
1	2196	186.968022071355	1
1	2202	187.102872623943	1
1	2217	188.962989246315	1
1	2228	191.56551352263	1
1	2237	191.918717650726	1
1	2250	192.787400708827	1
1	2256	192.908180228583	1
1	2271	193.67506223059	1
1	2282	194.374233819083	1
1	2293	197.538565852	1
1	2304	198.104699212343	1
1	2310	198.261634888427	1
2	5	0.431728297639	1
2	11	0.62231853896	1
2	26	1.340776724659	1
2	37	3.107206139616	1
2	46	3.309176433119	1
2	61	5.396334087589	1
2	64	5.496334087589	1
2	79	7.025066629262	1
2	90	8.494141748532	1
2	101	8.995752396449	1
2	112	10.010431847267	1
2	118	10.113689785305	1
2	133	11.0777388213	1
2	142	11.313169549287	1
2	155	12.127400948618	1
2	168	13.071318467508	1
2	171	13.171318467508	1
2	186	14.976464683925	1
2	199	15.397197534219	1
2	202	15.497197534219	1
2	217	18.204513908059	1
2	230	19.493657030633	1
2	233	19.593657030633	1
2	248	20.355177904576	1
2	261	22.250817437323	1
2	264	22.350817437323	1
2	279	24.277026296804	1
2	290	24.507615578245	1
2	295	24.607615578245	1
2	310	25.192698405729	1
2	321	26.196617038501	1
2	332	26.499120109108	1
2	343	27.261406972933	1
2	349	27.381838146394	1
2	364	28.246426598342	1
2	375	28.584771319954	1
2	386	29.212469955915	1
2	397	29.663321515482	1
2	410	29.979351297155	1
2	413	30.079351297155	1
2	423	30.316179273615	1
2	438	30.933092734766	1
2	449	31.716287719539	1
2	460	32.422848995931	1
2	473	32.901895644144	1
2	476	33.001895644144	1
2	491	34.423843809285	1
2	502	34.797360268218	1
2	513	35.312371849359	1
2	524	35.804967752827	1
2	530	35.952571788726	1
2	543	36.287021282931	1
2	551	36.442428172918	1
2	568	37.481750521923	1
2	571	37.581750521923	1
2	586	38.228307321281	1
2	597	39.430988427267	1
2	608	40.78043368026	1
2	619	41.108905237207	1
2	625	41.293405891746	1
2	635	41.503937357421	1
2	650	42.186464312509	1
2	661	43.877475972062	1
2	672	45.376917161837	1
2	683	46.17426084209	1
2	696	47.077638182184	1
2	701	47.177638182184	1
2	704	47.277638182184	1
2	723	47.969564670154	1
2	734	48.387944930965	1
2	740	48.552403767629	1
2	755	49.29331687343	1
2	766	50.366216066763	1
2	777	51.918800676785	1
2	783	52.038594548377	1
2	793	52.278396245144	1
2	808	52.837737314156	1
2	819	55.984571127544	1
2	830	58.064215708569	1
2	841	59.674921582955	1
2	852	61.190997161392	1
2	865	61.568178265669	1
2	868	61.668178265669	1
2	883	62.220211932172	1
2	894	65.297039744959	1
2	905	66.665505153124	1
2	918	67.688156705925	1
2	921	67.788156705925	1
2	936	68.942117347851	1
2	947	70.631770178007	1
2	960	71.924649837366	1
2	963	72.024649837366	1
2	978	74.011650175631	1
2	987	74.239320017292	1
2	995	74.375937269875	1
2	1005	74.561534691684	1
2	1020	75.986980736614	1
2	1031	78.418226427048	1
2	1042	80.147327617705	1
2	1053	81.950483928159	1
2	1064	83.629965735908	1
2	1075	83.879948643358	1
2	1080	83.979948643358	1
2	1095	85.581372090331	1
2	1106	86.051537001369	1
2	1117	86.374629527416	1
2	1128	86.920806690094	1
2	1139	89.810857315901	1
2	1150	90.509385769299	1
2	1161	90.906469749776	1
2	1172	91.551513255552	1
2	1183	92.24839303241	1
2	1189	92.381160863786	1
2	1204	94.813362658632	1
2	1219	98.764820834003	1
2	1222	98.864820834003	1
2	1225	98.964820834003	1
2	1239	99.28181017574	1
2	1254	100.104317737796	1
2	1265	101.548736247776	1
2	1276	102.374615990414	1
2	1287	103.038322384977	1
2	1300	105.970483978504	1
2	1303	106.070483978504	1
2	1311	106.237635158237	1
2	1325	106.480546758716	1
2	1330	106.580546758716	1
2	1347	109.559138725773	1
2	1358	111.604484221971	1
2	1366	111.775396229556	1
2	1371	111.875396229556	1
2	1386	112.208664441112	1
2	1399	113.716932145707	1
2	1410	117.290361013441	1
2	1421	118.67910816946	1
2	1432	119.249456724076	1
2	1443	121.202720522435	1
2	1454	122.247788874391	1
2	1465	124.602126275462	1
2	1476	125.076532049755	1
2	1487	125.380482637681	1
2	1498	126.377408514172	1
2	1507	126.633610663118	1
2	1520	127.860575589312	1
2	1531	128.213802079863	1
2	1542	130.533547861139	1
2	1553	131.728197278892	1
2	1564	132.027892841618	1
2	1569	132.127892841618	1
2	1584	132.583511392764	1
2	1595	133.652667952184	1
2	1606	134.719979641002	1
2	1617	136.577828045615	1
2	1628	137.215075753089	1
2	1639	138.336618879892	1
2	1650	139.042631562445	1
2	1661	140.503262812505	1
2	1672	140.88555884665	1
2	1683	141.299610435697	1
2	1694	144.333869219953	1
2	1703	144.570141469947	1
2	1714	144.819264456068	1
2	1725	145.086718794407	1
2	1738	146.448182674098	1
2	1749	147.682988582504	1
2	1757	147.847649805421	1
2	1762	147.947649805421	1
2	1779	151.657658994172	1
2	1790	152.232081795448	1
2	1799	152.505847880951	1
2	1812	153.141208489111	1
2	1818	153.30500933035	1
2	1833	154.277889408753	1
2	1844	155.016475262276	1
2	1850	155.123101740364	1
2	1858	155.275903150842	1
2	1875	156.085683823998	1
2	1886	156.979911334795	1
2	1897	160.046091735548	1
2	1908	160.84403395413	1
2	1919	161.532794052789	1
2	1930	163.321448132081	1
2	1943	164.122833250673	1
2	1946	164.222833250673	1
2	1961	168.341841335368	1
2	1972	168.773237809185	1
2	1983	170.47277728705	1
2	1994	171.39751099	1
2	2005	172.05248034551	1
2	2016	172.300225094475	1
2	2021	172.400225094475	1
2	2036	172.972513484012	1
2	2047	174.918405339773	1
2	2058	175.624881571774	1
2	2069	176.811027038567	1
2	2080	177.899358774974	1
2	2091	179.150685930639	1
2	2097	179.277166987489	1
2	2112	180.925525696294	1
2	2123	181.400128901901	1
2	2134	182.698218612997	1
2	2140	182.837919059753	1
2	2155	183.344114356369	1
2	2166	183.937858016239	1
2	2177	184.624707079956	1
2	2188	185.287513246124	1
2	2199	187.068122071355	1
2	2205	187.202972623943	1
2	2220	189.063089246315	1
2	2231	191.66561352263	1
2	2242	192.018817650726	1
2	2253	192.887500708827	1
2	2259	193.008280228583	1
2	2274	193.77516223059	1
2	2285	194.474333819083	1
2	2296	197.638665852	1
2	2307	198.204799212343	1
2	2313	198.361734888427	1
3	13	0.631828297639	1
3	18	0.831828297639	1
3	29	1.540876724659	1
3	43	3.307306139616	1
3	51	3.509276433119	1
3	66	5.596434087589	1
3	71	5.796434087589	1
3	82	7.225166629262	1
3	93	8.694241748532	1
3	104	9.195852396449	1
3	120	10.210531847267	1
3	125	10.410531847267	1
3	139	11.2778388213	1
3	147	11.513269549287	1
3	158	12.327500948618	1
3	173	13.271418467508	1
3	178	13.471418467508	1
3	189	15.176564683925	1
3	204	15.597297534219	1
3	209	15.797297534219	1
3	220	18.404613908059	1
3	235	19.693757030633	1
3	240	19.893757030633	1
3	251	20.555277904576	1
3	266	22.450917437323	1
3	271	22.650917437323	1
3	287	24.477126296804	1
3	297	24.707715578245	1
3	302	24.907715578245	1
3	313	25.392798405729	1
3	324	26.396717038501	1
3	335	26.699220109108	1
3	351	27.461506972933	1
3	356	27.661506972933	1
3	367	28.446526598342	1
3	378	28.784871319954	1
3	389	29.412569955915	1
3	400	29.863421515482	1
3	415	30.179451297155	1
3	425	30.379451297155	1
3	430	30.579451297155	1
3	441	31.133192734766	1
3	452	31.916387719539	1
3	463	32.622948995931	1
3	478	33.101995644144	1
3	483	33.301995644144	1
3	494	34.623943809285	1
3	505	34.997460268218	1
3	516	35.512471849359	1
3	532	36.005067752827	1
3	540	36.205067752827	1
3	553	36.487121282931	1
3	558	36.687121282931	1
3	573	37.681850521923	1
3	578	37.881850521923	1
3	589	38.428407321281	1
3	600	39.631088427267	1
3	611	40.98053368026	1
3	627	41.309005237207	1
3	637	41.509005237207	1
3	642	41.709005237207	1
3	653	42.386564312509	1
3	664	44.077575972062	1
3	675	45.577017161837	1
3	686	46.37436084209	1
3	705	47.277738182184	1
3	710	47.477738182184	1
3	715	47.677738182184	1
3	726	48.169664670154	1
3	742	48.588044930965	1
3	747	48.788044930965	1
3	758	49.49341687343	1
3	769	50.566316066763	1
3	785	52.118900676785	1
3	795	52.318900676785	1
3	800	52.518900676785	1
3	811	53.037837314156	1
3	822	56.184671127544	1
3	833	58.264315708569	1
3	844	59.875021582955	1
3	855	61.391097161392	1
3	870	61.768278265669	1
3	875	61.968278265669	1
3	886	62.420311932172	1
3	897	65.497139744959	1
3	908	66.865605153124	1
3	923	67.888256705925	1
3	928	68.088256705925	1
3	939	69.142217347851	1
3	950	70.831870178007	1
3	965	72.124749837366	1
3	970	72.324749837366	1
3	984	74.211750175631	1
3	997	74.439420017292	1
3	1007	74.639420017292	1
3	1012	74.839420017292	1
3	1023	76.187080736614	1
3	1034	78.618326427048	1
3	1045	80.347427617705	1
3	1056	82.150583928159	1
3	1072	83.830065735908	1
3	1082	84.080048643358	1
3	1087	84.280048643358	1
3	1098	85.781472090331	1
3	1109	86.251637001369	1
3	1120	86.574729527416	1
3	1131	87.120906690094	1
3	1142	90.010957315901	1
3	1153	90.709485769299	1
3	1164	91.106569749776	1
3	1175	91.751613255552	1
3	1191	92.44849303241	1
3	1196	92.64849303241	1
3	1207	95.013462658632	1
3	1226	98.964920834003	1
3	1231	99.164920834003	1
3	1241	99.364920834003	1
3	1246	99.564920834003	1
3	1257	100.304417737796	1
3	1268	101.748836247776	1
3	1279	102.574715990414	1
3	1290	103.238422384977	1
3	1308	106.170583978504	1
3	1315	106.370583978504	1
3	1327	106.570583978504	1
3	1334	106.770583978504	1
3	1339	106.970583978504	1
3	1350	109.759238725773	1
3	1368	111.804584221971	1
3	1375	112.004584221971	1
3	1383	112.204584221971	1
3	1391	112.408764441112	1
3	1402	113.917032145707	1
3	1413	117.490461013441	1
3	1424	118.87920816946	1
3	1435	119.449556724076	1
3	1446	121.402820522435	1
3	1457	122.447888874391	1
3	1468	124.802226275462	1
3	1479	125.276632049755	1
3	1490	125.580582637681	1
3	1504	126.577508514172	1
3	1512	126.833710663118	1
3	1523	128.060675589312	1
3	1534	128.413902079863	1
3	1545	130.733647861139	1
3	1559	131.928297278892	1
3	1571	132.227992841618	1
3	1576	132.427992841618	1
3	1587	132.783611392764	1
3	1598	133.852767952184	1
3	1609	134.920079641002	1
3	1620	136.777928045615	1
3	1631	137.415175753089	1
3	1642	138.536718879892	1
3	1653	139.242731562445	1
3	1664	140.703362812505	1
3	1675	141.08565884665	1
3	1686	141.499710435697	1
3	1700	144.533969219953	1
3	1711	144.770241469947	1
3	1722	145.019364456068	1
3	1730	145.286818794407	1
3	1741	146.648282674098	1
3	1759	147.883088582504	1
3	1766	148.083088582504	1
3	1771	148.283088582504	1
3	1782	151.857758994172	1
3	1796	152.432181795448	1
3	1804	152.705947880951	1
3	1820	153.341308489111	1
3	1825	153.541308489111	1
3	1836	154.477989408753	1
3	1855	155.216575262276	1
3	1862	155.416575262276	1
3	1867	155.616575262276	1
3	1878	156.285783823998	1
3	1889	157.180011334795	1
3	1900	160.246191735548	1
3	1911	161.04413395413	1
3	1922	161.732894052789	1
3	1933	163.521548132081	1
3	1948	164.322933250673	1
3	1953	164.522933250673	1
3	1964	168.541941335368	1
3	1975	168.973337809185	1
3	1986	170.67287728705	1
3	1997	171.59761099	1
3	2011	172.25258034551	1
3	2023	172.500325094475	1
3	2028	172.700325094475	1
3	2039	173.172613484012	1
3	2050	175.118505339773	1
3	2061	175.824981571774	1
3	2072	177.011127038567	1
3	2083	178.099458774974	1
3	2099	179.350785930639	1
3	2104	179.550785930639	1
3	2115	181.125625696294	1
3	2126	181.600228901901	1
3	2142	182.898318612997	1
3	2147	183.098318612997	1
3	2158	183.544214356369	1
3	2169	184.137958016239	1
3	2180	184.824807079956	1
3	2191	185.487613246124	1
3	2207	187.268222071355	1
3	2212	187.468222071355	1
3	2223	189.263189246315	1
3	2234	191.86571352263	1
3	2245	192.218917650726	1
3	2261	193.087600708827	1
3	2266	193.287600708827	1
3	2277	193.97526223059	1
3	2288	194.674433819083	1
3	2299	197.838765852	1
3	2315	198.404899212343	1
3	2320	198.604899212343	1
4	15	0.731828297639	0.4002
4	20	0.931828297639	0.409609758679
4	31	1.640876724659	0.4002
4	48	3.407306139616	0.4002
4	53	3.609276433119	0.4002
4	68	5.696434087589	0.4002
4	73	5.896434087589	0.533400222041
4	84	7.325166629262	0.4002
4	95	8.794241748532	0.4002
4	106	9.295852396449	0.4002
4	122	10.310531847267	0.4002
4	127	10.510531847267	0.496942061962
4	144	11.3778388213	0.4002
4	149	11.613269549287	0.4002
4	160	12.427500948618	0.4002
4	175	13.371418467508	0.4002
4	180	13.571418467508	0.56234597854
4	191	15.276564683925	0.4002
4	206	15.697297534219	0.4002
4	211	15.897297534219	0.56015896182
4	222	18.504613908059	0.4002
4	237	19.793757030633	0.4002
4	242	19.993757030633	0.541373213346
4	253	20.655277904576	0.4002
4	268	22.550917437323	0.4002
4	273	22.750917437323	0.567030071705
4	292	24.577126296804	0.4002
4	299	24.807715578245	0.4002
4	304	25.007715578245	0.550276955707
4	315	25.492798405729	0.4002
4	329	26.496717038501	0.4002
4	337	26.799220109108	0.4002
4	353	27.561506972933	0.4002
4	358	27.761506972933	0.479768826539
4	372	28.546526598342	0.4002
4	380	28.884871319954	0.4002
4	391	29.512569955915	0.4002
4	407	29.963421515482	0.4002
4	420	30.279451297155	0.4002
4	427	30.479451297155	0.599131695382
4	432	30.679451297155	0.46337202354
4	443	31.233192734766	0.4002
4	454	32.016387719539	0.4002
4	465	32.722948995931	0.4002
4	480	33.201995644144	0.4002
4	485	33.401995644144	0.55500757644
4	499	34.723943809285	0.4002
4	507	35.097460268218	0.4002
4	518	35.612471849359	0.4002
4	534	36.105067752827	0.4002
4	545	36.305067752827	0.452595964101
4	555	36.587121282931	0.4002
4	560	36.787121282931	0.444793110013
4	575	37.781850521923	0.4002
4	580	37.981850521923	0.546215509902
4	591	38.528407321281	0.4002
4	602	39.731088427267	0.4002
4	616	41.08053368026	0.4002
4	632	41.409005237207	0.4002
4	639	41.609005237207	0.415699345461
4	644	41.809005237207	0.405167879786
4	655	42.486564312509	0.4002
4	666	44.177575972062	0.4002
4	677	45.677017161837	0.4002
4	688	46.47436084209	0.4002
4	707	47.377738182184	0.4002
4	712	47.577738182184	0.51856834553
4	717	47.777738182184	0.656355500877
4	728	48.269664670154	0.4002
4	744	48.688044930965	0.4002
4	749	48.888044930965	0.435741163336
4	760	49.59341687343	0.4002
4	771	50.666316066763	0.4002
4	790	52.218900676785	0.4002
4	797	52.418900676785	0.480406128408
4	802	52.618900676785	0.440604431641
4	813	53.137837314156	0.4002
4	824	56.284671127544	0.4002
4	835	58.364315708569	0.4002
4	846	59.975021582955	0.4002
4	860	61.491097161392	0.4002
4	872	61.868278265669	0.4002
4	877	62.068278265669	0.533320337845
4	888	62.520311932172	0.4002
4	899	65.597139744959	0.4002
4	910	66.965605153124	0.4002
4	925	67.988256705925	0.4002
4	930	68.188256705925	0.551413209273
4	941	69.242217347851	0.4002
4	952	70.931870178007	0.4002
4	967	72.224749837366	0.4002
4	972	72.424749837366	0.590759596131
4	992	74.311750175631	0.4002
4	1002	74.539420017292	0.4002
4	1009	74.739420017292	0.463582747417
4	1014	74.939420017292	0.477985325608
4	1025	76.287080736614	0.4002
4	1036	78.718326427048	0.4002
4	1047	80.447427617705	0.4002
4	1058	82.250583928159	0.4002
4	1077	83.930065735908	0.4002
4	1084	84.180048643358	0.4002
4	1089	84.380048643358	0.572089016185
4	1100	85.881472090331	0.4002
4	1114	86.351637001369	0.4002
4	1122	86.674729527416	0.4002
4	1133	87.220906690094	0.4002
4	1144	90.110957315901	0.4002
4	1158	90.809485769299	0.4002
4	1166	91.206569749776	0.4002
4	1177	91.851613255552	0.4002
4	1193	92.54849303241	0.4002
4	1198	92.74849303241	0.467432168624
4	1209	95.113462658632	0.4002
4	1228	99.064920834003	0.4002
4	1236	99.264920834003	0.589984413419
4	1243	99.464920834003	0.725422241094
4	1248	99.664920834003	0.483210658263
4	1259	100.404417737796	0.4002
4	1270	101.848836247776	0.4002
4	1281	102.674715990414	0.4002
4	1292	103.338422384977	0.4002
4	1312	106.270583978504	0.4002
4	1322	106.470583978504	0.542004517173
4	1331	106.670583978504	0.533048820267
4	1336	106.870583978504	0.490137219788
4	1341	107.070583978504	0.607484638239
4	1352	109.859238725773	0.4002
4	1372	111.904584221971	0.4002
4	1377	112.104584221971	0.429287992415
4	1388	112.304584221971	0.614258344276
4	1393	112.508764441112	0.4002
4	1404	114.017032145707	0.4002
4	1415	117.590461013441	0.4002
4	1426	118.97920816946	0.4002
4	1437	119.549556724076	0.4002
4	1448	121.502820522435	0.4002
4	1459	122.547888874391	0.4002
4	1470	124.902226275462	0.4002
4	1484	125.376632049755	0.4002
4	1492	125.680582637681	0.4002
4	1509	126.677508514172	0.4002
4	1514	126.933710663118	0.4002
4	1528	128.160675589312	0.4002
4	1536	128.513902079863	0.4002
4	1547	130.833647861139	0.4002
4	1566	132.028297278892	0.4002
4	1573	132.327992841618	0.4002
4	1581	132.527992841618	0.518158571251
4	1589	132.883611392764	0.4002
4	1600	133.952767952184	0.4002
4	1611	135.020079641002	0.4002
4	1622	136.877928045615	0.4002
4	1633	137.515175753089	0.4002
4	1644	138.636718879892	0.4002
4	1655	139.342731562445	0.4002
4	1669	140.803362812505	0.4002
4	1677	141.18565884665	0.4002
4	1688	141.599710435697	0.4002
4	1705	144.633969219953	0.4002
4	1716	144.870241469947	0.4002
4	1727	145.119364456068	0.4002
4	1732	145.386818794407	0.4002
4	1743	146.748282674098	0.4002
4	1763	147.983088582504	0.4002
4	1768	148.183088582504	0.435538777083
4	1773	148.383088582504	0.572576276633
4	1784	151.957758994172	0.4002
4	1801	152.532181795448	0.4002
4	1806	152.805947880951	0.4002
4	1822	153.441308489111	0.4002
4	1827	153.641308489111	0.436399158761
4	1838	154.577989408753	0.4002
4	1859	155.316575262276	0.4002
4	1864	155.516575262276	0.493573521912
4	1869	155.716575262276	0.540772111434
4	1880	156.385783823998	0.4002
4	1891	157.280011334795	0.4002
4	1902	160.346191735548	0.4002
4	1913	161.14413395413	0.4002
4	1924	161.832894052789	0.4002
4	1935	163.621548132081	0.4002
4	1950	164.422933250673	0.4002
4	1955	164.622933250673	0.583425805776
4	1966	168.641941335368	0.4002
4	1977	169.073337809185	0.4002
4	1988	170.77287728705	0.4002
4	1999	171.69761099	0.4002
4	2018	172.35258034551	0.4002
4	2025	172.600325094475	0.4002
4	2030	172.800325094475	0.520831183179
4	2041	173.272613484012	0.4002
4	2052	175.218505339773	0.4002
4	2063	175.924981571774	0.4002
4	2074	177.111127038567	0.4002
4	2085	178.199458774974	0.4002
4	2101	179.450785930639	0.4002
4	2106	179.650785930639	0.47371894315
4	2117	181.225625696294	0.4002
4	2128	181.700228901901	0.4002
4	2144	182.998318612997	0.4002
4	2149	183.198318612997	0.460499553244
4	2160	183.644214356369	0.4002
4	2171	184.237958016239	0.4002
4	2182	184.924807079956	0.4002
4	2193	185.587613246124	0.4002
4	2209	187.368222071355	0.4002
4	2214	187.568222071355	0.465349447412
4	2225	189.363189246315	0.4002
4	2239	191.96571352263	0.4002
4	2247	192.318917650726	0.4002
4	2263	193.187600708827	0.4002
4	2268	193.387600708827	0.479420480244
4	2279	194.07526223059	0.4002
4	2290	194.774433819083	0.4002
4	2301	197.938765852	0.4002
4	2317	198.504899212343	0.4002
4	2322	198.704899212343	0.443264323916
5	15	0.731828297639	1
5	20	0.931828297639	1
5	31	1.640876724659	1
5	48	3.407306139616	1
5	53	3.609276433119	1
5	68	5.696434087589	1
5	73	5.896434087589	1
5	84	7.325166629262	1
5	95	8.794241748532	1
5	106	9.295852396449	1
5	122	10.310531847267	1
5	127	10.510531847267	1
5	144	11.3778388213	1
5	149	11.613269549287	1
5	160	12.427500948618	1
5	175	13.371418467508	1
5	180	13.571418467508	1