version 3
run FeedbackVersion-14-20240511-20:48:08-11935
attr configname FeedbackVersion
attr datetime 20240511-20:48:08
attr datetimef 20240511-204808
attr experiment FeedbackVersion
attr inifile omnetpp.ini
attr iterationvars $genInterval=0.8
attr iterationvarsd genInterval=0.8
attr iterationvarsf genInterval=0.8-
attr measurement $genInterval=0.8
attr network NetworkFV
attr processid 11935
attr repetition 0
attr replication #0
attr resultdir results
attr runnumber 14
attr seedset 14
itervar genInterval 0.8
config network NetworkFV
config sim-time-limit 200s
config NetworkFV.nodeTx.gen.generationInterval exponential(0.8)
config NetworkFV.nodeTx.gen.packetByteSize 12500
config NetworkFV.queueOne.bufferSize 200
config NetworkFV.nodeRx.queue.bufferSize 200
config NetworkFV.nodeTx.queue.bufferSize 2000000
config NetworkFV.queueZero.bufferSize 200

vector 0 NetworkFV.nodeRx.queue PacketsLost ETV
vector 1 NetworkFV.nodeRx.queue PacketsAsked ETV
vector 2 NetworkFV.queueOne bufferSize ETV
vector 3 NetworkFV.nodeTx.gen packetGen ETV
vector 4 NetworkFV.nodeTx.queue BufferSize ETV
vector 5 NetworkFV.nodeTx.queue PacketsSent ETV
vector 6 NetworkFV.queueZero bufferSize ETV
vector 7 NetworkFV.nodeRx.queue BufferSize ETV
vector 8 NetworkFV.nodeRx.sink Delay ETV
vector 9 NetworkFV.nodeRx.sink packetUsed ETV
0	1	0	1
0	6	0.2	1
0	7	0.4	1
0	11	0.6	1
0	15	0.8	1
0	22	1.3002	1
0	23	1.6004	1
0	28	1.9006	1
0	29	2.2008	1
0	30	2.501	1
0	37	2.8012	1
0	52	3.4016	1
0	53	3.7018	1
0	60	4.002	1
0	71	4.6024	1
0	78	4.9026	1
0	85	5.503	1
0	86	5.8032	1
0	87	6.1034	1
0	94	6.4036	1
0	113	6.7038	1
0	127	7.004	1
0	139	7.3042	1
0	150	7.9046	1
0	151	8.2048	1
0	152	8.505	1
0	153	8.8052	1
0	154	9.1054	1
0	155	9.4056	1
0	160	9.7058	1
0	170	10.006	1
0	180	10.3062	1
0	184	10.6064	1
0	198	10.9066	1
0	241	12.1074	1
0	250	12.4076	1
0	288	13.6084	1
0	289	13.9086	1
0	298	14.2088	1
0	332	15.4096	1
0	345	16.01	1
0	386	17.2108	1
0	393	17.8112	1
0	394	18.1114	1
0	395	18.4116	1
0	396	18.7118	1
0	397	19.012	1
0	402	19.3122	1
0	403	19.6124	1
0	414	19.9126	1
0	439	20.8132	1
0	464	21.4136	1
0	487	22.3142	1
0	488	22.6144	1
0	489	22.9146	1
0	490	23.2148	1
0	491	23.515	1
0	502	23.8152	1
0	537	25.016	1
0	538	25.3162	1
0	539	25.6164	1
0	540	25.9166	1
0	541	26.2168	1
0	542	26.517	1
0	547	26.8172	1
0	548	27.1174	1
0	549	27.4176	1
0	550	27.7178	1
0	551	28.018	1
0	558	28.3182	1
1	1	0	2
1	23	1.6004	1
1	39	2.917089028598	0
1	47	3.1014	1
1	62	4.103915123244	2
1	94	6.4036	1
1	100	6.599625455245	1
1	121	6.964546937282	1
1	141	7.396634697679	2
1	155	9.4056	1
1	172	10.10499245473	1
1	189	10.881594018442	1
1	205	11.189448463287	2
1	232	11.695962669922	4
1	279	13.077991545066	6
1	347	16.139067776699	9
1	397	19.012	4
1	447	21.064512992011	4
1	491	23.515	2
1	516	24.225988345056	2
1	542	26.517	1
1	558	28.3182	0
2	2	0	1
2	24	1.6004	1
2	41	2.917089028598	1
2	48	3.1014	1
2	64	4.103915123244	1
2	95	6.4036	1
2	102	6.599625455245	1
2	123	6.964546937282	1
2	143	7.396634697679	1
2	156	9.4056	1
2	174	10.10499245473	1
2	191	10.881594018442	1
2	207	11.189448463287	1
2	234	11.695962669922	1
2	281	13.077991545066	1
2	349	16.139067776699	1
2	398	19.012	1
2	449	21.064512992011	1
2	492	23.515	1
2	518	24.225988345056	1
2	543	26.517	1
2	559	28.3182	1
3	8	0.577144061132	1
3	31	2.616889028598	1
3	54	3.803715123244	1
3	72	4.664612548188	1
3	88	6.299425455245	1
3	106	6.664346937282	1
3	109	6.670810537485	1
3	117	6.799889861502	1
3	130	7.096434697679	1
3	136	7.276236325065	1
3	161	9.80479245473	1
3	167	10.00560934713	1
3	181	10.581394018442	1
3	195	10.889248463287	1
3	211	11.195762669922	1
3	226	11.557958715697	1
3	242	12.177791545066	1
3	266	12.797299317998	1
3	274	12.997356559827	1
3	290	13.912473800344	1
3	326	15.226378949746	1
3	339	15.838867776699	1
3	353	16.174017691392	1
3	362	16.401494246992	1
3	380	17.020787163927	1
3	404	19.733636015003	1
3	407	19.738348901481	1
3	412	19.869703784384	1
3	436	20.764312992011	1
3	443	20.962015813681	1
3	454	21.150618253607	1
3	465	21.429704513629	1
3	496	23.58688952648	1
3	506	23.925788345056	1
3	522	24.300825104053	1
3	552	28.099600402228	1
3	570	29.216414138528	1
3	574	29.421965482337	1
3	581	30.574190920471	1
3	594	33.554419097611	1
3	602	35.189675284464	1
3	606	35.284532702401	1
3	609	35.377859699559	1
3	613	35.529824122839	1
3	616	35.815269204393	1
3	624	37.100719132249	1
3	628	37.616061164059	1
3	638	39.636360599476	1
3	644	40.530441891067	1
3	649	41.141835484196	1
3	653	41.380121012559	1
3	656	41.461390880138	1
3	663	42.427645220433	1
3	666	42.527753299401	1
3	672	43.383773308505	1
3	676	43.630166692764	1
3	679	43.790888634848	1
3	685	44.804887233042	1
3	689	45.11584795785	1
3	693	45.26529939022	1
3	702	47.013407405242	1
3	716	50.264217389096	1
3	719	50.33384030696	1
3	722	50.355576502881	1
3	729	51.453692058457	1
3	732	51.462997672772	1
3	735	51.514500540862	1
3	744	53.488948803025	1
3	751	54.540816052759	1
3	760	56.26051530978	1
3	766	57.345939037042	1
3	769	57.413893044821	1
3	774	57.833178203118	1
3	780	58.78774646114	1
3	796	62.590960702332	1
3	802	63.527857168255	1
3	806	64.00924161958	1
3	820	67.288336965082	1
3	824	67.456793837596	1
3	830	68.307188404267	1
3	834	68.653819058801	1
3	837	68.822232474303	1
3	844	69.825916871506	1
3	851	71.177967966825	1
3	855	71.531798263843	1
3	860	71.891967452521	1
3	863	71.934366248532	1
3	866	71.966910871281	1
3	870	72.270654029357	1
3	888	76.716937085434	1
3	909	82.100363775638	1
3	915	83.0123469835	1
3	919	83.283981977174	1
3	925	84.347434492627	1
3	930	84.843048381348	1
3	936	85.708947339819	1
3	942	86.772177499038	1
3	946	87.089129004996	1
3	957	89.390478487272	1
3	963	90.439327345143	1
3	967	90.593615397325	1
3	970	90.75605792425	1
3	974	90.947091584308	1
3	979	91.428777308256	1
3	982	91.542468479265	1
3	986	91.742354010086	1
3	989	91.929597490519	1
3	994	92.483776007459	1
3	1012	96.840847618219	1
3	1018	97.841203194925	1
3	1022	98.067779050442	1
3	1025	98.22713670646	1
3	1029	98.320411539925	1
3	1038	100.228979201257	1
3	1043	100.787217977209	1
3	1046	100.87896119722	1
3	1051	101.366185181859	1
3	1057	102.415180869225	1
3	1064	103.476063778047	1
3	1071	104.642523286575	1
3	1076	105.418579387636	1
3	1080	105.742015812834	1
3	1086	106.518339313506	1
3	1093	107.642289182381	1
3	1096	107.772466820711	1
3	1103	108.946701808543	1
3	1108	109.564929665577	1
3	1114	110.30265617962	1
3	1117	110.405238616095	1
3	1122	111.128734715754	1
3	1126	111.26160248707	1
3	1135	113.040073134703	1
3	1139	113.518602503972	1
3	1143	113.59396086527	1
3	1147	114.042355086696	1
3	1152	114.755071085888	1
3	1159	115.813462595861	1
3	1164	116.566462663529	1
3	1168	116.62759743479	1
3	1172	116.906895976732	1
3	1175	117.168351283999	1
3	1181	118.053772039817	1
3	1185	118.198312393979	1
3	1193	119.873514170023	1
3	1198	120.441078750765	1
3	1204	121.11241214687	1
3	1209	121.804987493529	1
3	1215	122.624249036516	1
3	1220	123.438482507038	1
3	1224	123.62653555263	1
3	1228	123.819200499112	1
3	1235	124.995116513445	1
3	1239	125.427564036193	1
3	1243	125.641771909561	1
3	1247	126.144880130924	1
3	1254	127.158181824678	1
3	1257	127.227560454628	1
3	1261	127.618923111712	1
3	1267	128.294607075504	1
3	1270	128.342909037194	1
3	1273	128.550462140578	1
3	1277	128.607627073054	1
3	1280	128.636733990163	1
3	1287	129.970154439301	1
3	1299	132.641392615719	1
3	1303	132.940762598191	1
3	1306	133.002837786389	1
3	1311	133.41094760531	1
3	1317	134.459838467694	1
3	1321	134.718479261482	1
3	1326	135.277215988352	1
3	1330	135.649173071368	1
3	1333	135.72692015307	1
3	1341	137.159514344972	1
3	1346	137.753299164421	1
3	1356	139.871360223622	1
3	1361	140.326997323291	1
3	1364	140.553490314578	1
3	1369	141.188777833472	1
3	1373	141.200541966085	1
3	1383	143.387322094699	1
3	1394	145.77605487229	1
3	1411	150.022797167734	1
3	1420	151.936730509594	1
3	1426	152.805251209607	1
3	1429	152.868631265831	1
3	1434	153.218357231324	1
3	1439	153.829339732616	1
3	1443	154.291991171615	1
3	1449	155.151949201099	1
3	1456	156.347109426004	1
3	1469	159.335495270153	1
3	1475	160.128070998487	1
3	1479	160.636777721532	1
3	1483	160.719282274934	1
3	1490	162.010020270809	1
3	1496	162.853511480791	1
3	1501	163.546446644444	1
3	1513	166.315612500025	1
3	1524	168.641022116177	1
3	1528	168.857369553181	1
3	1534	169.730667928024	1
3	1538	170.129685118091	1
3	1541	170.176370666703	1
3	1544	170.245396894184	1
3	1548	170.528304180029	1
3	1556	171.916081988532	1
3	1560	172.236926832601	1
3	1564	172.510351739601	1
3	1567	172.649209216717	1
3	1571	172.79250871519	1
3	1574	172.806650789791	1
3	1577	172.949124842244	1
3	1585	174.271774294262	1
3	1589	174.532318179553	1
3	1593	174.829440856566	1
3	1596	174.835110919727	1
3	1603	176.022695573729	1
3	1609	177.12775886884	1
3	1613	177.252903350111	1
3	1621	178.79120865093	1
3	1624	178.975751612144	1
3	1634	181.055493276991	1
3	1638	181.326185890517	1
3	1642	181.613980937604	1
3	1648	182.326584912191	1
3	1652	182.840746458667	1
3	1661	184.574751672727	1
3	1668	185.653381848509	1
3	1671	185.73831306399	1
3	1677	186.579628597953	1
3	1684	187.843799441929	1
3	1688	188.092961572882	1
3	1694	188.97706401667	1
3	1698	189.371545942841	1
3	1707	191.085919416725	1
3	1716	192.971053201972	1
3	1719	193.030185860073	1
3	1726	194.080151737308	1
3	1729	194.194642700507	1
3	1732	194.258090400827	1
3	1735	194.309621810916	1
3	1739	194.494439688561	1
3	1746	195.632639783248	1
3	1755	197.38632231151	1
3	1759	197.869542164046	1
3	1764	198.295324725429	1
3	1767	198.451717793978	1
3	1771	198.634756398744	1
3	1776	199.304062117254	1
3	1780	199.644920553788	1
4	9	0.577144061132	1
4	32	2.616889028598	1
4	55	3.803715123244	1
4	73	4.664612548188	1
4	89	6.299425455245	1
4	107	6.664346937282	1
4	110	6.670810537485	1
4	118	6.799889861502	2
4	131	7.096434697679	3
4	137	7.276236325065	3
4	162	9.80479245473	4
4	168	10.00560934713	4
4	182	10.581394018442	5
4	196	10.889248463287	5
4	212	11.195762669922	5
4	227	11.557958715697	4
4	243	12.177791545066	5
4	267	12.797299317998	2
4	275	12.997356559827	3
4	291	13.912473800344	4
4	327	15.226378949746	1
4	340	15.838867776699	1
4	354	16.174017691392	1
4	363	16.401494246992	1
4	381	17.020787163927	1
4	405	19.733636015003	1
4	408	19.738348901481	1
4	413	19.869703784384	1
4	437	20.764312992011	1
4	444	20.962015813681	1
4	455	21.150618253607	2
4	466	21.429704513629	1
4	497	23.58688952648	1
4	507	23.925788345056	1
4	523	24.300825104053	1
4	553	28.099600402228	1
4	571	29.216414138528	1
4	575	29.421965482337	2
4	582	30.574190920471	3
4	595	33.554419097611	4
4	603	35.189675284464	5
4	607	35.284532702401	6
4	610	35.377859699559	7
4	614	35.529824122839	8
4	617	35.815269204393	9
4	625	37.100719132249	10
4	629	37.616061164059	11
4	639	39.636360599476	12
4	645	40.530441891067	13
4	650	41.141835484196	14
4	654	41.380121012559	15
4	657	41.461390880138	16
4	664	42.427645220433	17
4	667	42.527753299401	18
4	673	43.383773308505	19
4	677	43.630166692764	20
4	680	43.790888634848	21
4	686	44.804887233042	22
4	690	45.11584795785	23
4	694	45.26529939022	24
4	703	47.013407405242	25
4	717	50.264217389096	26
4	720	50.33384030696	27
4	723	50.355576502881	28
4	730	51.453692058457	29
4	733	51.462997672772	30
4	736	51.514500540862	31
4	745	53.488948803025	32
4	752	54.540816052759	33
4	761	56.26051530978	34
4	767	57.345939037042	35
4	770	57.413893044821	36
4	775	57.833178203118	37
4	781	58.78774646114	38
4	797	62.590960702332	39
4	803	63.527857168255	40
4	807	64.00924161958	41
4	821	67.288336965082	42
4	825	67.456793837596	43
4	831	68.307188404267	44
4	835	68.653819058801	45
4	838	68.822232474303	46
4	845	69.825916871506	47
4	852	71.177967966825	48
4	856	71.531798263843	49
4	861	71.891967452521	50
4	864	71.934366248532	51
4	867	71.966910871281	52
4	871	72.270654029357	53
4	889	76.716937085434	54
4	910	82.100363775638	55
4	916	83.0123469835	56
4	920	83.283981977174	57
4	926	84.347434492627	58
4	931	84.843048381348	59
4	937	85.708947339819	60
4	943	86.772177499038	61
4	947	87.089129004996	62
4	958	89.390478487272	63
4	964	90.439327345143	64
4	968	90.593615397325	65
4	971	90.75605792425	66
4	975	90.947091584308	67
4	980	91.428777308256	68
4	983	91.542468479265	69
4	987	91.742354010086	70
4	990	91.929597490519	71
4	995	92.483776007459	72
4	1013	96.840847618219	73
4	1019	97.841203194925	74
4	1023	98.067779050442	75
4	1026	98.22713670646	76
4	1030	98.320411539925	77
4	1039	100.228979201257	78
4	1044	100.787217977209	79
4	1047	100.87896119722	80
4	1052	101.366185181859	81
4	1058	102.415180869225	82
4	1065	103.476063778047	83
4	1072	104.642523286575	84
4	1077	105.418579387636	85
4	1081	105.742015812834	86
4	1087	106.518339313506	87
4	1094	107.642289182381	88
4	1097	107.772466820711	89
4	1104	108.946701808543	90
4	1109	109.564929665577	91
4	1115	110.30265617962	92
4	1118	110.405238616095	93
4	1123	111.128734715754	94
4	1127	111.26160248707	95
4	1136	113.040073134703	96
4	1140	113.518602503972	97
4	1144	113.59396086527	98
4	1148	114.042355086696	99
4	1153	114.755071085888	100
4	1160	115.813462595861	101
4	1165	116.566462663529	102
4	1169	116.62759743479	103
4	1173	116.906895976732	104
4	1176	117.168351283999	105
4	1182	118.053772039817	106
4	1186	118.198312393979	107
4	1194	119.873514170023	108
4	1199	120.441078750765	109
4	1205	121.11241214687	110
4	1210	121.804987493529	111
4	1216	122.624249036516	112
4	1221	123.438482507038	113
4	1225	123.62653555263	114
4	1229	123.819200499112	115
4	1236	124.995116513445	116
4	1240	125.427564036193	117
4	1244	125.641771909561	118
4	1248	126.144880130924	119
4	1255	127.158181824678	120
4	1258	127.227560454628	121
4	1262	127.618923111712	122
4	1268	128.294607075504	123
4	1271	128.342909037194	124
4	1274	128.550462140578	125
4	1278	128.607627073054	126
4	1281	128.636733990163	127
4	1288	129.970154439301	128
4	1300	132.641392615719	129
4	1304	132.940762598191	130
4	1307	133.002837786389	131
4	1312	133.41094760531	132
4	1318	134.459838467694	133
4	1322	134.718479261482	134
4	1327	135.277215988352	135
4	1331	135.649173071368	136
4	1334	135.72692015307	137
4	1342	137.159514344972	138
4	1347	137.753299164421	139
4	1357	139.871360223622	140
4	1362	140.326997323291	141
4	1365	140.553490314578	142
4	1370	141.188777833472	143
4	1374	141.200541966085	144
4	1384	143.387322094699	145
4	1395	145.77605487229	146
4	1412	150.022797167734	147
4	1421	151.936730509594	148
4	1427	152.805251209607	149
4	1430	152.868631265831	150
4	1435	153.218357231324	151
4	1440	153.829339732616	152
4	1444	154.291991171615	153
4	1450	155.151949201099	154
4	1457	156.347109426004	155
4	1470	159.335495270153	156
4	1476	160.128070998487	157
4	1480	160.636777721532	158
4	1484	160.719282274934	159
4	1491	162.010020270809	160
4	1497	162.853511480791	161
4	1502	163.546446644444	162
4	1514	166.315612500025	163
4	1525	168.641022116177	164
4	1529	168.857369553181	165
4	1535	169.730667928024	166
4	1539	170.129685118091	167
4	1542	170.176370666703	168
4	1545	170.245396894184	169
4	1549	170.528304180029	170
4	1557	171.916081988532	171
4	1561	172.236926832601	172
4	1565	172.510351739601	173
4	1568	172.649209216717	174
4	1572	172.79250871519	175
4	1575	172.806650789791	176
4	1578	172.949124842244	177
4	1586	174.271774294262	178
4	1590	174.532318179553	179
4	1594	174.829440856566	180
4	1597	174.835110919727	181
4	1604	176.022695573729	182
4	1610	177.12775886884	183
4	1614	177.252903350111	184
4	1622	178.79120865093	185
4	1625	178.975751612144	186
4	1635	181.055493276991	187
4	1639	181.326185890517	188
4	1643	181.613980937604	189
4	1649	182.326584912191	190
4	1653	182.840746458667	191
4	1662	184.574751672727	192
4	1669	185.653381848509	193
4	1672	185.73831306399	194
4	1678	186.579628597953	195
4	1685	187.843799441929	196
4	1689	188.092961572882	197
4	1695	188.97706401667	198
4	1699	189.371545942841	199
4	1708	191.085919416725	200
4	1717	192.971053201972	201
4	1720	193.030185860073	202
4	1727	194.080151737308	203
4	1730	194.194642700507	204
4	1733	194.258090400827	205
4	1736	194.309621810916	206
4	1740	194.494439688561	207
4	1747	195.632639783248	208
4	1756	197.38632231151	209
4	1760	197.869542164046	210
4	1765	198.295324725429	211
4	1768	198.451717793978	212
4	1772	198.634756398744	213
4	1777	199.304062117254	214
4	1781	199.644920553788	215
5	10	0.577144061132	1
5	33	2.616889028598	2
5	56	3.803715123244	3
5	74	4.664612548188	4
5	90	6.299425455245	5
5	108	6.664346937282	6
5	132	7.096434697679	7
5	163	9.80479245473	8
5	183	10.581394018442	9
5	197	10.889248463287	10
5	213	11.195762669922	11
5	217	11.295762669922	12
5	244	12.177791545066	13
5	245	12.277791545066	14
5	248	12.377791545066	15
5	251	12.477791545066	16
5	292	13.912473800344	17
5	293	14.012473800344	18
5	296	14.112473800344	19
5	299	14.212473800344	20
5	328	15.226378949746	21
5	341	15.838867776699	22
5	355	16.174017691392	23
5	364	16.401494246992	24
5	382	17.020787163927	25
5	406	19.733636015003	26
5	409	19.833636015003	27
5	415	19.933636015003	28
5	438	20.764312992011	29
5	456	21.150618253607	30
5	459	21.250618253607	31
5	467	21.429704513629	32
5	498	23.58688952648	33
5	508	23.925788345056	34
5	524	24.300825104053	35
5	554	28.099600402228	36
6	13	0.677244061132	1
6	35	2.716989028598	1
6	58	3.903815123244	1
6	76	4.764712548188	1
6	92	6.399525455245	1
6	115	6.764446937282	1
6	134	7.196534697679	1
6	165	9.90489245473	1
6	186	10.681494018442	1
6	202	10.989348463287	1
6	218	11.295862669922	1
6	221	11.395862669922	1
6	246	12.277891545066	1
6	249	12.377891545066	1
6	253	12.477891545066	1
6	257	12.577891545066	2
6	294	14.012573800344	1
6	297	14.112573800344	1
6	301	14.212573800344	1
6	305	14.312573800344	2
6	330	15.326478949746	1
6	343	15.938967776699	1
6	359	16.274117691392	1
6	369	16.501594246992	1
6	384	17.120887163927	1
6	410	19.833736015003	1
6	416	19.933736015003	1
6	419	20.033736015003	1
6	441	20.864412992011	1
6	460	21.250718253607	1
6	463	21.350718253607	1
6	472	21.529804513629	1
6	500	23.68698952648	1
6	512	24.025888345056	1
6	528	24.400925104053	1
6	556	28.199700402228	1
7	17	0.877344061132	1
7	39	2.917089028598	1
7	62	4.103915123244	1
7	80	4.964812548188	1
7	100	6.599625455245	1
7	121	6.964546937282	1
7	141	7.396634697679	1
7	172	10.10499245473	1
7	189	10.881594018442	1
7	205	11.189448463287	1
7	223	11.495962669922	1
7	232	11.695962669922	1
7	254	12.477991545066	1
7	261	12.677991545066	1
7	270	12.877991545066	1
7	279	13.077991545066	1
7	302	14.212673800344	1
7	309	14.412673800344	1
7	315	14.612673800344	1
7	321	14.812673800344	1
7	334	15.526578949746	1
7	347	16.139067776699	1
7	366	16.474217691392	1
7	375	16.701694246992	1
7	388	17.320987163927	1
7	420	20.033836015003	1
7	426	20.233836015003	1
7	431	20.433836015003	1
7	447	21.064512992011	1
7	469	21.450818253607	1
7	476	21.650818253607	1
7	482	21.850818253607	1
7	504	23.88708952648	1
7	516	24.225988345056	1
7	532	24.601025104053	1
7	564	28.399800402228	1
8	19	0.977344061132	0.4002
8	45	3.017089028598	0.4002
8	68	4.203915123244	0.4002
8	82	5.064812548188	0.4002
8	111	6.699625455245	0.4002
8	128	7.064546937282	0.4002
8	147	7.496634697679	0.825824160194
8	178	10.20499245473	3.405102593228
8	199	10.981594018442	3.885159320763
8	215	11.289448463287	4.013212138222
8	229	11.595962669922	1.791170215192
8	238	11.795962669922	1.790353322792
8	258	12.577991545066	1.996597526624
8	264	12.777991545066	1.888743081779
8	272	12.977991545066	1.782228875144
8	285	13.177991545066	1.620032829369
8	306	14.312673800344	2.134882255278
8	312	14.512673800344	1.715374482346
8	317	14.712673800344	1.715317240517
8	323	14.912673800344	1.0002
8	336	15.626578949746	0.4002
8	356	16.239067776699	0.4002
8	371	16.574217691392	0.4002
8	377	16.801694246992	0.4002
8	390	17.420987163927	0.4002
8	422	20.133836015003	0.4002
8	428	20.333836015003	0.595487113522
8	434	20.533836015003	0.664132230619
8	457	21.164512992011	0.4002
8	473	21.550818253607	0.588802439926
8	479	21.750818253607	0.6002
8	484	21.950818253607	0.521113739978
8	509	23.98708952648	0.4002
8	525	24.325988345056	0.4002
8	534	24.701025104053	0.4002
8	566	28.499800402228	0.4002
9	19	0.977344061132	1
9	45	3.017089028598	1
9	68	4.203915123244	1
9	82	5.064812548188	1
9	111	6.699625455245	1
9	128	7.064546937282	1
9	147	7.496634697679	1
9	178	10.20499245473	1
9	199	10.981594018442	1
9	215	11.289448463287	1
9	229	11.595962669922	1
9	238	11.795962669922	1
9	258	12.577991545066	1
9	264	12.777991545066	1
9	272	12.977991545066	1
9	285	13.177991545066	1
9	306	14.312673800344	1
9	312	14.512673800344	1
9	317	14.712673800344	1
9	323	14.912673800344	1
9	336	15.626578949746	1
9	356	16.239067776699	1
9	371	16.574217691392	1
9	377	16.801694246992	1
9	390	17.420987163927	1
9	422	20.133836015003	1
9	428	20.333836015003	1
9	434	20.533836015003	1
9	457	21.164512992011	1
9	473	21.550818253607	1
9	479	21.750818253607	1
9	484	21.950818253607	1
9	509	23.98708952648	1
9	525	24.325988345056	1
9	534	24.701025104053	1
9	566	28.499800402228	1

