version 3
run FeedbackVersion-7-20240511-20:48:08-11935
attr configname FeedbackVersion
attr datetime 20240511-20:48:08
attr datetimef 20240511-204808
attr experiment FeedbackVersion
attr inifile omnetpp.ini
attr iterationvars $genInterval=0.45
attr iterationvarsd genInterval=0.45
attr iterationvarsf genInterval=0.45-
attr measurement $genInterval=0.45
attr network NetworkFV
attr processid 11935
attr repetition 0
attr replication #0
attr resultdir results
attr runnumber 7
attr seedset 7
itervar genInterval 0.45
config network NetworkFV
config sim-time-limit 200s
config NetworkFV.nodeTx.gen.generationInterval exponential(0.45)
config NetworkFV.nodeTx.gen.packetByteSize 12500
config NetworkFV.queueOne.bufferSize 200
config NetworkFV.nodeRx.queue.bufferSize 200
config NetworkFV.nodeTx.queue.bufferSize 2000000
config NetworkFV.queueZero.bufferSize 200

vector 0 NetworkFV.nodeRx.queue PacketsLost ETV
vector 1 NetworkFV.nodeRx.queue PacketsAsked ETV
vector 2 NetworkFV.queueOne bufferSize ETV
vector 3 NetworkFV.nodeTx.gen packetGen ETV
vector 4 NetworkFV.nodeTx.queue BufferSize ETV
vector 5 NetworkFV.nodeTx.queue PacketsSent ETV
vector 6 NetworkFV.queueZero bufferSize ETV
vector 7 NetworkFV.nodeRx.queue BufferSize ETV
vector 8 NetworkFV.nodeRx.sink Delay ETV
vector 9 NetworkFV.nodeRx.sink packetUsed ETV
0	1	0	1
0	15	0.2	1
0	40	1.0004	1
0	65	1.901	1
0	66	2.2012	1
0	67	2.5014	1
0	68	2.8016	1
0	75	3.1018	1
0	118	4.6028	1
0	119	4.903	1
0	120	5.2032	1
0	121	5.5034	1
0	131	5.8036	1
0	271	9.1058	1
0	281	9.7062	1
0	291	10.0064	1
0	320	10.6068	1
0	376	12.408	1
0	380	12.7082	1
0	393	13.3086	1
0	435	14.5094	1
0	436	14.8096	1
0	447	15.1098	1
0	454	15.7102	1
0	455	16.0104	1
0	462	16.3106	1
0	495	17.2112	1
0	529	18.412	1
0	530	18.7122	1
0	537	19.0124	1
0	544	19.6128	1
0	554	19.913	1
0	595	21.1138	1
0	606	21.7142	1
0	607	22.0144	1
0	614	22.3146	1
0	621	22.915	1
0	622	23.2152	1
0	633	23.5154	1
0	659	23.8156	1
0	706	25.0164	1
0	822	27.7182	1
0	823	28.0184	1
0	824	28.3186	1
0	825	28.6188	1
0	834	28.919	1
0	895	30.42	1
0	921	31.3206	1
0	931	31.921	1
0	932	32.2212	1
0	933	32.5214	1
0	943	32.8216	1
0	1087	36.1238	1
0	1088	36.424	1
0	1097	36.7242	1
0	1167	38.8256	1
0	1168	39.1258	1
0	1169	39.426	1
0	1174	39.7262	1
0	1175	40.0264	1
0	1182	40.3266	1
0	1189	40.927	1
0	1196	41.2272	1
0	1206	41.8276	1
0	1228	42.1278	1
0	1244	42.7282	1
0	1279	43.6288	1
0	1324	44.8296	1
0	1400	46.6308	1
0	1456	48.1318	1
0	1481	49.0324	1
0	1498	49.6328	1
0	1511	50.2332	1
0	1518	50.8336	1
0	1519	51.1338	1
0	1523	51.434	1
0	1548	52.3346	1
0	1562	52.935	1
0	1563	53.2352	1
0	1564	53.5354	1
0	1577	53.8356	1
0	1627	55.0364	1
0	1656	55.937	1
0	1660	56.2372	1
0	1670	56.8376	1
0	1671	57.1378	1
0	1672	57.438	1
0	1680	57.7382	1
0	1700	58.6388	1
0	1701	58.939	1
0	1708	59.2392	1
0	1722	59.8396	1
0	1723	60.1398	1
0	1732	60.44	1
0	1763	61.3406	1
0	1772	61.6408	1
0	1784	62.2412	1
0	1791	62.5414	1
0	1803	63.1418	1
0	1894	65.5434	1
0	1918	66.1438	1
0	2007	68.2452	1
0	2031	69.1458	1
0	2032	69.446	1
0	2039	69.7462	1
0	2092	71.2472	1
0	2099	71.5474	1
0	2106	72.1478	1
0	2117	72.448	1
0	2130	73.0484	1
0	2181	74.5494	1
0	2188	74.8496	1
0	2201	75.45	1
0	2224	76.3506	1
0	2233	76.6508	1
0	2260	77.8516	1
0	2264	78.1518	1
0	2274	78.7522	1
0	2286	79.0524	1
0	2302	79.6528	1
0	2303	79.953	1
0	2307	80.2532	1
0	2352	81.454	1
0	2362	81.7542	1
0	2429	83.2552	1
0	2458	84.1558	1
0	2468	84.7562	1
0	2494	85.6568	1
0	2521	86.5574	1
0	2564	87.7582	1
0	2568	88.0584	1
0	2607	89.2592	1
0	2608	89.5594	1
0	2612	89.8596	1
0	2628	90.46	1
0	2645	91.0604	1
0	2662	91.6608	1
0	2677	92.2612	1
0	2687	92.8616	1
0	2694	93.1618	1
0	2707	93.7622	1
0	2745	94.329639944054	1
0	2747	94.3626	1
0	2794	95.5634	1
0	2795	95.8636	1
0	2808	96.1638	1
0	2845	97.3646	1
0	2880	98.5654	1
0	2887	98.8656	1
0	2906	99.7662	1
0	2907	100.0664	1
0	2911	100.3666	1
0	2966	101.8676	1
0	3023	103.3686	1
0	3115	105.7702	1
0	3122	106.3706	1
0	3129	106.6708	1
0	3196	108.472	1
0	3215	109.3726	1
0	3216	109.6728	1
0	3221	109.973	1
0	3222	110.2732	1
0	3229	110.5734	1
0	3289	112.0744	1
0	3293	112.3746	1
0	3303	112.975	1
0	3308	113.2752	1
0	3309	113.5754	1
0	3310	113.8756	1
0	3311	114.1758	1
0	3318	114.476	1
0	3325	115.0764	1
0	3336	115.3766	1
0	3346	115.6768	1
0	3355	115.977	1
0	3368	116.2772	1
0	3385	116.8776	1
0	3386	117.1778	1
0	3387	117.478	1
0	3394	117.7782	1
0	3432	118.979	1
0	3433	119.2792	1
0	3434	119.5794	1
0	3441	119.8796	1
0	3455	120.48	1
0	3477	121.0804	1
0	3516	122.2812	1
0	3520	122.5814	1
0	3538	123.482	1
0	3539	123.7822	1
0	3546	124.0824	1
0	3612	125.5834	1
0	3686	127.6848	1
0	3728	128.8856	1
0	3737	129.1858	1
0	3773	130.3866	1
0	3774	130.6868	1
0	3775	130.987	1
0	3776	131.2872	1
0	3781	131.5874	1
0	3782	131.8876	1
0	3783	132.1878	1
0	3784	132.488	1
0	3785	132.7882	1
0	3794	133.0884	1
0	3825	133.602027525264	1
0	3830	133.6888	1
0	3867	134.5894	1
0	3968	136.991	1
0	3977	137.2912	1
0	3992	138.1918	1
0	3993	138.492	1
0	3994	138.7922	1
0	3995	139.0924	1
0	4003	139.3926	1
0	4013	139.993	1
0	4014	140.2932	1
0	4015	140.5934	1
0	4016	140.8936	1
0	4026	141.1938	1
0	4042	141.494	1
0	4115	143.2952	1
0	4116	143.5954	1
0	4126	143.8956	1
0	4168	145.0964	1
0	4185	145.6968	1
0	4192	146.2972	1
0	4199	146.5974	1
0	4242	148.0984	1
0	4252	148.6988	1
0	4253	148.999	1
0	4266	149.2992	1
0	4287	150.1998	1
0	4359	152.001	1
0	4360	152.3012	1
0	4369	152.6014	1
0	4438	154.4026	1
0	4603	158.3052	1
0	4620	158.9056	1
0	4660	160.1064	1
0	4705	161.6074	1
0	4706	161.9076	1
0	4718	162.2078	1
0	4730	162.8082	1
0	4731	163.1084	1
0	4732	163.4086	1
0	4737	163.7088	1
0	4744	164.009	1
0	4751	164.6094	1
0	4752	164.9096	1
0	4764	165.2098	1
0	4776	165.8102	1
0	4787	166.1104	1
0	4825	167.011	1
0	4859	167.9116	1
0	4866	168.2118	1
0	4917	169.7128	1
0	4924	170.013	1
0	4943	170.9136	1
0	4950	171.2138	1
0	4957	171.8142	1
0	4961	172.1144	1
0	5051	173.9156	1
0	5064	174.516	1
0	5113	175.7168	1
0	5131	176.6174	1
0	5132	176.9176	1
0	5141	177.2178	1
0	5170	178.1184	1
0	5219	179.6194	1
0	5220	179.9196	1
0	5227	180.2198	1
0	5272	181.4206	1
0	5300	182.6214	1
0	5301	182.9216	1
0	5316	183.2218	1
0	5328	183.8222	1
0	5329	184.1224	1
0	5333	184.4226	1
0	5401	185.9236	1
0	5423	186.8242	1
0	5424	187.1244	1
0	5425	187.4246	1
0	5426	187.7248	1
0	5436	188.025	1
0	5461	188.9256	1
0	5478	189.526	1
0	5522	190.7268	1
0	5553	191.6274	1
0	5642	193.7288	1
0	5643	194.029	1
0	5652	194.3292	1
0	5766	197.3312	1
0	5773	197.6314	1
0	5780	198.2318	1
0	5781	198.532	1
0	5788	198.8322	1
0	5801	199.4326	1
1	1	0	2
1	25	0.535919610161	2
1	56	1.333172759363	4
1	109	4.139844161821	6
1	196	7.021587107751	10
1	303	10.296394676594	15
1	436	14.8096	7
1	520	17.877160563232	7
1	595	21.1138	3
1	633	23.5154	1
1	639	23.609843723647	1
1	653	23.809843723647	1
1	666	24.009843723647	2
1	691	24.494221334956	4
1	747	26.015404226129	6
1	813	27.374941388721	9
1	895	30.42	4
1	949	32.949032270042	4
1	997	33.990236913515	7
1	1072	35.472066413508	10
1	1169	39.426	5
1	1206	41.8276	1
1	1222	42.108988513528	1
1	1232	42.308988513528	2
1	1262	43.195904274488	4
1	1307	44.319088984384	6
1	1383	46.075802363257	9
1	1483	49.180344860023	13
1	1548	52.3346	6
1	1612	54.721948455086	6
1	1672	57.438	3
1	1713	59.347261013201	3
1	1754	60.94795908931	5
1	1819	63.572847341003	7
1	1899	65.61882698628	11
1	2022	68.693760828284	17
1	2106	72.1478	8
1	2203	75.546644822628	8
1	2286	79.0524	4
1	2332	80.708371167915	4
1	2380	82.016102794873	6
1	2443	83.604589608018	9
1	2555	87.313778892566	14
1	2628	90.46	7
1	2707	93.7622	2
1	2731	94.129639944054	2
1	2756	94.529639944054	3
1	2785	95.170449554275	5
1	2847	97.472931059356	8
1	2951	101.50464025186	12
1	3088	105.045174190317	18
1	3216	109.6728	9
1	3303	112.975	3
1	3325	115.0764	1
1	3338	115.5588802787	1
1	3357	115.998365552626	1
1	3376	116.544269514328	2
1	3404	118.089858797706	3
1	3443	119.93923133103	5
1	3507	121.831150011941	7
1	3597	125.277348903941	11
1	3719	128.482795574018	17
1	3776	131.2872	8
1	3794	133.0884	2
1	3813	133.402027525264	2
1	3839	133.875528717942	4
1	3885	134.991004417295	6
1	3953	136.264852202139	9
1	3995	139.0924	4
1	4026	141.1938	1
1	4034	141.363571215622	1
1	4049	141.563571215622	2
1	4073	142.048801796819	3
1	4106	142.886154887254	5
1	4170	145.165214200714	8
1	4253	148.999	4
1	4303	150.567080690653	4
1	4350	151.484823338009	6
1	4426	153.81171586941	9
1	4523	156.227088378476	13
1	4676	160.41277132448	20
1	4732	163.4086	10
1	4776	165.8102	3
1	4810	166.620694873367	3
1	4850	167.581749476497	5
1	4908	169.152022853294	7
1	4961	172.1144	3
1	4995	172.798059238525	3
1	5028	173.398059238525	5
1	5093	175.130178870198	8
1	5189	178.564133963411	13
1	5301	182.9216	6
1	5370	185.27788458421	6
1	5436	188.025	3
1	5463	189.013213897477	3
1	5503	190.243495842301	4
1	5558	191.761776443234	7
1	5633	193.2974777285	11
1	5757	197.001565986808	16
1	5801	199.4326	8
2	2	0	1
2	27	0.535919610161	1
2	58	1.333172759363	1
2	111	4.139844161821	1
2	198	7.021587107751	1
2	305	10.296394676594	1
2	437	14.8096	1
2	522	17.877160563232	1
2	596	21.1138	1
2	634	23.5154	1
2	641	23.609843723647	1
2	655	23.809843723647	1
2	668	24.009843723647	1
2	693	24.494221334956	1
2	749	26.015404226129	1
2	815	27.374941388721	1
2	896	30.42	1
2	951	32.949032270042	1
2	999	33.990236913515	1
2	1074	35.472066413508	1
2	1170	39.426	1
2	1207	41.8276	1
2	1224	42.108988513528	1
2	1234	42.308988513528	1
2	1264	43.195904274488	1
2	1309	44.319088984384	1
2	1385	46.075802363257	1
2	1485	49.180344860023	1
2	1549	52.3346	1
2	1614	54.721948455086	1
2	1673	57.438	1
2	1715	59.347261013201	1
2	1756	60.94795908931	1
2	1821	63.572847341003	1
2	1901	65.61882698628	1
2	2024	68.693760828284	1
2	2107	72.1478	1
2	2205	75.546644822628	1
2	2287	79.0524	1
2	2334	80.708371167915	1
2	2382	82.016102794873	1
2	2445	83.604589608018	1
2	2557	87.313778892566	1
2	2629	90.46	1
2	2708	93.7622	1
2	2733	94.129639944054	1
2	2758	94.529639944054	1
2	2787	95.170449554275	1
2	2849	97.472931059356	1
2	2953	101.50464025186	1
2	3090	105.045174190317	1
2	3217	109.6728	1
2	3304	112.975	1
2	3326	115.0764	1
2	3340	115.5588802787	1
2	3359	115.998365552626	1
2	3378	116.544269514328	1
2	3406	118.089858797706	1
2	3445	119.93923133103	1
2	3509	121.831150011941	1
2	3599	125.277348903941	1
2	3721	128.482795574018	1
2	3777	131.2872	1
2	3795	133.0884	1
2	3815	133.402027525264	1
2	3841	133.875528717942	1
2	3887	134.991004417295	1
2	3955	136.264852202139	1
2	3996	139.0924	1
2	4027	141.1938	1
2	4036	141.363571215622	1
2	4051	141.563571215622	1
2	4075	142.048801796819	1
2	4108	142.886154887254	1
2	4172	145.165214200714	1
2	4254	148.999	1
2	4305	150.567080690653	1
2	4352	151.484823338009	1
2	4428	153.81171586941	1
2	4525	156.227088378476	1
2	4678	160.41277132448	1
2	4733	163.4086	1
2	4777	165.8102	1
2	4812	166.620694873367	1
2	4852	167.581749476497	1
2	4910	169.152022853294	1
2	4962	172.1144	1
2	4997	172.798059238525	1
2	5030	173.398059238525	1
2	5095	175.130178870198	1
2	5191	178.564133963411	1
2	5302	182.9216	1
2	5372	185.27788458421	1
2	5437	188.025	1
2	5465	189.013213897477	1
2	5505	190.243495842301	1
2	5560	191.761776443234	1
2	5635	193.2974777285	1
2	5759	197.001565986808	1
2	5802	199.4326	1
3	6	0.035719610161	1
3	12	0.151781348769	1
3	34	0.832972759363	1
3	41	1.005841245725	1
3	51	1.265483079315	1
3	69	2.987586342986	1
3	87	3.566024683246	1
3	96	3.839644161821	1
3	122	5.556950543495	1
3	128	5.722635041323	1
3	142	6.070603967185	1
3	151	6.208461326522	1
3	162	6.521387107751	1
3	165	6.562219398936	1
3	170	6.595869790744	1
3	183	6.840510205238	1
3	188	6.981168798916	1
3	191	6.988386028337	1
3	204	7.300196520684	1
3	219	7.637821662849	1
3	240	8.14948556524	1
3	268	9.063455140093	1
3	282	9.796194676594	1
3	288	9.976973609014	1
3	297	10.192773318821	1
3	312	10.417382471425	1
3	315	10.448077281643	1
3	334	10.95291967659	1
3	341	11.105866524102	1
3	361	11.607935762553	1
3	377	12.68948349699	1
3	390	13.222406520743	1
3	397	13.330414080529	1
3	402	13.521487029098	1
3	416	13.79225482576	1
3	441	14.985898952908	1
3	456	16.190386541671	1
3	463	16.327457797499	1
3	466	16.338804302809	1
3	487	16.964011772693	1
3	501	17.376960563232	1
3	507	17.509363555764	1
3	531	18.858610037297	1
3	545	19.716214642172	1
3	551	19.834005830583	1
3	555	19.920056803444	1
3	570	20.277877711416	1
3	589	20.981808264271	1
3	608	22.061046600963	1
3	623	23.309643723647	1
3	626	23.373954015211	1
3	645	23.642020977931	1
3	662	23.975517826005	1
3	678	24.194021334956	1
3	700	24.818592147806	1
3	707	25.017649614839	1
3	723	25.515204226129	1
3	726	25.611896795848	1
3	737	25.895688101886	1
3	743	25.943337383307	1
3	753	26.046487895639	1
3	764	26.343042549291	1
3	781	26.646723892614	1
3	797	27.074741388721	1
3	809	27.284363926629	1
3	826	28.64382120353	1
3	835	28.935844713769	1
3	845	29.128836879712	1
3	856	29.333826930782	1
3	866	29.479480706004	1
3	889	30.298324487445	1
3	900	30.564501362591	1
3	918	31.223217115421	1
3	934	32.648832270042	1
3	940	32.818423724132	1
3	944	32.907494514782	1
3	963	33.290036913515	1
3	966	33.359330491514	1
3	974	33.504694730008	1
3	976	33.543935651184	1
3	991	33.815294366864	1
3	1006	34.171866413508	1
3	1018	34.367785408784	1
3	1027	34.534900549144	1
3	1047	35.016936110896	1
3	1055	35.166465987172	1
3	1068	35.374632785712	1
3	1089	36.516834348751	1
3	1098	36.793362891904	1
3	1112	37.048962720849	1
3	1130	37.620712347547	1
3	1137	37.86487638907	1
3	1149	38.104598831573	1
3	1176	40.032743192377	1
3	1190	41.098781257407	1
3	1203	41.808788513528	1
3	1211	41.898339346338	1
3	1218	42.087580434693	1
3	1241	42.695704274488	1
3	1248	42.856426032175	1
3	1258	43.103398968968	1
3	1271	43.418888984384	1
3	1280	43.669051360135	1
3	1297	44.108336364322	1
3	1316	44.561108533968	1
3	1330	45.042583390674	1
3	1345	45.375602363257	1
3	1354	45.510574416617	1
3	1363	45.751751262892	1
3	1375	45.985539082104	1
3	1378	45.986181636329	1
3	1392	46.48135991973	1
3	1395	46.524919862627	1
3	1408	46.785437631153	1
3	1428	47.341542331563	1
3	1450	48.02646379775	1
3	1460	48.360842475	1
3	1475	48.880144860023	1
3	1492	49.416209857574	1
3	1505	50.016673757269	1
3	1520	51.416873311487	1
3	1530	51.719369409334	1
3	1545	52.236231211355	1
3	1565	53.621748455086	1
3	1568	53.646314895816	1
3	1570	53.721432340533	1
3	1578	53.887663366859	1
3	1598	54.358951841837	1
3	1619	54.763027868952	1
3	1631	55.129831606904	1
3	1639	55.250448187886	1
3	1657	56.163493047559	1
3	1677	57.671703650733	1
3	1681	57.741476345989	1
3	1702	59.047061013201	1
3	1709	59.314376294578	1
3	1724	60.163308323124	1
3	1738	60.64775908931	1
3	1750	60.935431854511	1
3	1764	61.423164874644	1
3	1785	62.251999063175	1
3	1798	63.072647341003	1
3	1801	63.135890107872	1
3	1815	63.478105718544	1
3	1825	63.644259258506	1
3	1828	63.662463294031	1
3	1838	63.94225100636	1
3	1845	63.987467779032	1
3	1868	64.596859401872	1
3	1888	65.31862698628	1
3	1895	65.617963407088	1
3	1908	65.849629878952	1
3	1911	65.915868550724	1
3	1929	66.432075317623	1
3	1940	66.621475019632	1
3	1953	66.935125730777	1
3	1965	67.11161250397	1
3	1975	67.339372355687	1
3	1985	67.500145453685	1
3	2004	68.193560828284	1
3	2008	68.274976723314	1
3	2033	69.635245102215	1
3	2040	69.87643409342	1
3	2049	70.010689279249	1
3	2062	70.27818090859	1
3	2077	70.608356126615	1
3	2093	71.279401616994	1
3	2111	72.190983771877	1
3	2124	72.90718232026	1
3	2131	73.183934302838	1
3	2146	73.516466775895	1
3	2149	73.568909788847	1
3	2162	73.846719101755	1
3	2182	74.568726579166	1
3	2195	75.246444822628	1
3	2209	75.556492136793	1
3	2225	76.538809668011	1
3	2228	76.637638266249	1
3	2247	77.143294347747	1
3	2261	78.082930180258	1
3	2275	78.808256392679	1
3	2281	78.948752302395	1
3	2304	80.208171167915	1
3	2311	80.329858505805	1
3	2314	80.348535919398	1
3	2324	80.558307796282	1
3	2353	81.496481228561	1
3	2359	81.715902794873	1
3	2369	81.861586656199	1
3	2376	81.981010649088	1
3	2394	82.27162707373	1
3	2400	82.35861974546	1
3	2423	83.075637344912	1
3	2430	83.304389608018	1
3	2452	83.87281371291	1
3	2465	84.702082248292	1
3	2469	84.773708185237	1
3	2488	85.46904776646	1
3	2500	85.952858442193	1
3	2513	86.413578892566	1
3	2516	86.445873947407	1
3	2527	86.7542197314	1
3	2538	86.952993911124	1
3	2551	87.241291196128	1
3	2565	87.99537219957	1
3	2574	88.284677354767	1
3	2588	88.535822530619	1
3	2609	89.829519463799	1
3	2622	90.241686561866	1
3	2639	90.844076791971	1
3	2652	91.430222654293	1
3	2655	91.449330500279	1
3	2674	92.224069326214	1
3	2688	92.862128981482	1
3	2701	93.505298233236	1
3	2715	93.829439944054	1
3	2718	93.832665954498	1
3	2722	93.921105790012	1
3	2737	94.166432329054	1
3	2750	94.390344659357	1
3	2765	94.670249554275	1
3	2796	95.933240413193	1
3	2799	95.958934993116	1
3	2804	96.066675600303	1
3	2816	96.417526550538	1
3	2839	97.172731059356	1
3	2855	97.593890019692	1
3	2862	97.826506335108	1
3	2881	98.619810952936	1
3	2891	99.017445432198	1
3	2908	100.29725858318	1
3	2912	100.389865679272	1
3	2917	100.451576618565	1
3	2940	101.20444025186	1
3	2947	101.322306156441	1
3	2960	101.713590268147	1
3	2975	102.19794210854	1
3	2986	102.464465996966	1
3	2993	102.528415396594	1
3	3014	103.248366200401	1
3	3020	103.362533044222	1
3	3032	103.716169512213	1
3	3047	104.101073793115	1
3	3056	104.344974190317	1
3	3062	104.428564353962	1
3	3064	104.437268490482	1
3	3094	105.123210916019	1
3	3109	105.641294674842	1
3	3123	106.516427762279	1
3	3133	106.81775763452	1
3	3136	106.833172043134	1
3	3143	106.94531420229	1
3	3156	107.287613774329	1
3	3172	107.647485609782	1
3	3190	108.36492497536	1
3	3200	108.697646841699	1
3	3223	110.360163896084	1
3	3233	110.661014537366	1
3	3241	110.8052672202	1
3	3247	110.942611767623	1
3	3253	111.025972968044	1
3	3270	111.363141892023	1
3	3290	112.305055964651	1
3	3312	114.179173976138	1
3	3330	115.2586802787	1
3	3347	115.698165552626	1
3	3350	115.797194535683	1
3	3365	116.244069514328	1
3	3372	116.506218775233	1
3	3388	117.589658797706	1
3	3410	118.161260982925	1
3	3435	119.63903133103	1
3	3452	120.478983082488	1
3	3463	120.874855858632	1
3	3468	120.957770066199	1
3	3473	121.038860559947	1
3	3491	121.530950011941	1
3	3503	121.754560294038	1
3	3517	122.496791772739	1
3	3540	123.798354898024	1
3	3550	124.15739757685	1
3	3558	124.346697656679	1
3	3562	124.427690583133	1
3	3584	124.977148903941	1
3	3588	124.993427793221	1
3	3593	125.27312367692	1
3	3606	125.421910165703	1
3	3615	125.641982194674	1
3	3641	126.384296552084	1
3	3653	126.722558472093	1
3	3656	126.743168117239	1
3	3678	127.519072180053	1
3	3681	127.522784879588	1
3	3694	127.980628236395	1
3	3706	128.182595574018	1
3	3729	129.076728674911	1
3	3732	129.106310028989	1
3	3746	129.561855894951	1
3	3752	129.634717535846	1
3	3786	132.901827525264	1
3	3789	132.912386096492	1
3	3804	133.240595844098	1
3	3821	133.575328717942	1
3	3833	133.753945700963	1
3	3854	134.290804417295	1
3	3857	134.337603684034	1
3	3864	134.588236998845	1
3	3881	134.964652202139	1
3	3891	135.029690394704	1
3	3898	135.138741811753	1
3	3908	135.319869204071	1
3	3911	135.325206585909	1
3	3928	135.726805495823	1
3	3939	135.886805065543	1
3	3969	137.157827896682	1
3	3972	137.175718715803	1
3	4000	139.380978450078	1
3	4017	141.063371215622	1
3	4023	141.187817892106	1
3	4043	141.548601796819	1
3	4046	141.55338812017	1
3	4055	141.586876123813	1
3	4087	142.385954887254	1
3	4094	142.572983079001	1
3	4117	143.748386518149	1
3	4123	143.873604910722	1
3	4134	144.149726412056	1
3	4138	144.200829147212	1
3	4162	144.865014200714	1
3	4179	145.527015638906	1
3	4193	146.432146512543	1
3	4200	146.626415475275	1
3	4216	147.049695079471	1
3	4219	147.143211853776	1
3	4239	148.070498460104	1
3	4258	149.167536824854	1
3	4261	149.178423826076	1
3	4281	150.066880690653	1
3	4288	150.209484959262	1
3	4296	150.438530921734	1
3	4309	150.584623338009	1
3	4323	150.940303070729	1
3	4328	150.998151604843	1
3	4340	151.267485540977	1
3	4361	152.35464252832	1
3	4378	152.886930075894	1
3	4381	152.90084055002	1
3	4389	153.009111756794	1
3	4407	153.51151586941	1
3	4418	153.687585014005	1
3	4421	153.720890527469	1
3	4435	154.326888378476	1
3	4444	154.528266693949	1
3	4446	154.618982478318	1
3	4463	154.862637626523	1
3	4482	155.398497519886	1
3	4488	155.488571750683	1
3	4502	155.825216718571	1
3	4518	156.156454579857	1
3	4529	156.25602119798	1
3	4543	156.600586266247	1
3	4561	157.073603219699	1
3	4568	157.245199320512	1
3	4579	157.566001553252	1
3	4597	158.167172809371	1
3	4610	158.69280966132	1
3	4613	158.771377133816	1
3	4626	159.154765495115	1
3	4633	159.250985572914	1
3	4654	159.91257132448	1
3	4661	160.109557536257	1
3	4671	160.334245226994	1
3	4684	160.548184261551	1
3	4707	161.981088551471	1
3	4713	162.085052907803	1
3	4738	163.803635783099	1
3	4753	164.933010915849	1
3	4759	165.037312898249	1
3	4781	165.829675135228	1
3	4788	166.120494873367	1
3	4794	166.171358678112	1
3	4819	166.874000573055	1
3	4826	167.081549476497	1
3	4829	167.143151277683	1
3	4837	167.262329164835	1
3	4860	168.051822853294	1
3	4869	168.321732864067	1
3	4877	168.443713793811	1
3	4888	168.589244730351	1
3	4918	169.859541892446	1
3	4928	170.173087270066	1
3	4944	170.946395050428	1
3	4958	172.097859238525	1
3	4966	172.121775477186	1
3	4973	172.338717892458	1
3	4976	172.339553257325	1
3	5001	172.812138237956	1
3	5006	172.899782757867	1
3	5023	173.307214105355	1
3	5043	173.655114744704	1
3	5058	174.282477423566	1
3	5068	174.629978870198	1
3	5071	174.658620742844	1
3	5084	174.981256301105	1
3	5107	175.59586652569	1
3	5114	175.720659247105	1
3	5133	177.03641161648	1
3	5136	177.039199762863	1
3	5149	177.455553009472	1
3	5167	178.063933963411	1
3	5174	178.216523370877	1
3	5185	178.485308324389	1
3	5206	178.987448906036	1
3	5221	179.922171208559	1
3	5233	180.48240510807	1
3	5240	180.702597920636	1
3	5258	181.183388482031	1
3	5261	181.185264461013	1
3	5263	181.25677578199	1
3	5268	181.328170982682	1
3	5306	182.961531091736	1
3	5309	182.978341888908	1
3	5330	184.37768458421	1
3	5337	184.520660059451	1
3	5346	184.769390454481	1
3	5356	184.906484101047	1
3	5376	185.311713257473	1
3	5391	185.734568419153	1
3	5394	185.752764244606	1
3	5396	185.824995880025	1
3	5427	187.839717096408	1
3	5433	187.944481248237	1
3	5455	188.713013897477	1
3	5472	189.287903746671	1
3	5484	189.743295842301	1
3	5491	189.883431252257	1
3	5512	190.52767212152	1
3	5515	190.619669824629	1
3	5520	190.713401130482	1
3	5544	191.461576443234	1
3	5550	191.627028081104	1
3	5554	191.669979423781	1
3	5564	191.7972777285	1
3	5567	191.859774816085	1
3	5587	192.267682708797	1
3	5606	192.779861453095	1
3	5611	192.823244204312	1
3	5623	193.091941581746	1
3	5644	194.108771133603	1
3	5653	194.330956018023	1
3	5666	194.610140403581	1
3	5683	195.098054305541	1
3	5692	195.362856421852	1
3	5695	195.367598915635	1
3	5700	195.41737298622	1
3	5708	195.553794980961	1
3	5730	196.073490096313	1
3	5749	196.701365986808	1
3	5767	197.465326498819	1
3	5782	198.712906793004	1
3	5795	199.159773559364	1
3	5811	199.666491055416	1
3	5818	199.791186829635	1
4	7	0.035719610161	1
4	13	0.151781348769	1
4	35	0.832972759363	1
4	42	1.005841245725	1
4	52	1.265483079315	1
4	70	2.987586342986	2
4	88	3.566024683246	1
4	97	3.839644161821	1
4	123	5.556950543495	1
4	129	5.722635041323	1
4	143	6.070603967185	1
4	152	6.208461326522	1
4	163	6.521387107751	1
4	166	6.562219398936	1
4	171	6.595869790744	2
4	184	6.840510205238	2
4	189	6.981168798916	3
4	192	6.988386028337	4
4	205	7.300196520684	5
4	220	7.637821662849	2
4	241	8.14948556524	1
4	269	9.063455140093	1
4	283	9.796194676594	1
4	289	9.976973609014	1
4	298	10.192773318821	1
4	313	10.417382471425	2
4	316	10.448077281643	2
4	335	10.95291967659	1
4	342	11.105866524102	1
4	362	11.607935762553	1
4	378	12.68948349699	1
4	391	13.222406520743	1
4	398	13.330414080529	1
4	403	13.521487029098	1
4	417	13.79225482576	1
4	442	14.985898952908	1
4	457	16.190386541671	1
4	464	16.327457797499	1
4	467	16.338804302809	1
4	488	16.964011772693	1
4	502	17.376960563232	1
4	508	17.509363555764	1
4	532	18.858610037297	1
4	546	19.716214642172	1
4	552	19.834005830583	1
4	556	19.920056803444	1
4	571	20.277877711416	1
4	590	20.981808264271	1
4	609	22.061046600963	1
4	624	23.309643723647	1
4	627	23.373954015211	1
4	646	23.642020977931	1
4	663	23.975517826005	1
4	679	24.194021334956	1
4	701	24.818592147806	1
4	708	25.017649614839	1
4	724	25.515204226129	1
4	727	25.611896795848	1
4	738	25.895688101886	1
4	744	25.943337383307	2
4	754	26.046487895639	3
4	765	26.343042549291	1
4	782	26.646723892614	1
4	798	27.074741388721	1
4	810	27.284363926629	1
4	827	28.64382120353	2
4	836	28.935844713769	1
4	846	29.128836879712	1
4	857	29.333826930782	1
4	867	29.479480706004	1
4	890	30.298324487445	1
4	901	30.564501362591	1
4	919	31.223217115421	1
4	935	32.648832270042	1
4	941	32.818423724132	1
4	945	32.907494514782	1
4	964	33.290036913515	2
4	967	33.359330491514	2
4	975	33.504694730008	1
4	977	33.543935651184	2
4	992	33.815294366864	2
4	1007	34.171866413508	3
4	1019	34.367785408784	2
4	1028	34.534900549144	1
4	1048	35.016936110896	1
4	1056	35.166465987172	1
4	1069	35.374632785712	1
4	1090	36.516834348751	2
4	1099	36.793362891904	1
4	1113	37.048962720849	1
4	1131	37.620712347547	1
4	1138	37.86487638907	1
4	1150	38.104598831573	1
4	1177	40.032743192377	1
4	1191	41.098781257407	1
4	1204	41.808788513528	1
4	1212	41.898339346338	1
4	1219	42.087580434693	1
4	1242	42.695704274488	2
4	1249	42.856426032175	1
4	1259	43.103398968968	2
4	1272	43.418888984384	3
4	1281	43.669051360135	1
4	1298	44.108336364322	1
4	1317	44.561108533968	2
4	1331	45.042583390674	1
4	1346	45.375602363257	1
4	1355	45.510574416617	1
4	1364	45.751751262892	1
4	1376	45.985539082104	1
4	1379	45.986181636329	2
4	1393	46.48135991973	3
4	1396	46.524919862627	3
4	1409	46.785437631153	1
4	1429	47.341542331563	1
4	1451	48.02646379775	1
4	1461	48.360842475	1
4	1476	48.880144860023	1
4	1493	49.416209857574	1
4	1506	50.016673757269	1
4	1521	51.416873311487	1
4	1531	51.719369409334	1
4	1546	52.236231211355	1
4	1566	53.621748455086	1
4	1569	53.646314895816	1
4	1571	53.721432340533	2
4	1579	53.887663366859	1
4	1599	54.358951841837	1
4	1620	54.763027868952	1
4	1632	55.129831606904	1
4	1640	55.250448187886	1
4	1658	56.163493047559	1
4	1678	57.671703650733	1
4	1682	57.741476345989	1
4	1703	59.047061013201	1
4	1710	59.314376294578	1
4	1725	60.163308323124	2
4	1739	60.64775908931	1
4	1751	60.935431854511	1
4	1765	61.423164874644	2
4	1786	62.251999063175	1
4	1799	63.072647341003	1
4	1802	63.135890107872	1
4	1816	63.478105718544	1
4	1826	63.644259258506	2
4	1829	63.662463294031	2
4	1839	63.94225100636	1
4	1846	63.987467779032	1
4	1869	64.596859401872	1
4	1889	65.31862698628	1
4	1896	65.617963407088	1
4	1909	65.849629878952	2
4	1912	65.915868550724	2
4	1930	66.432075317623	1
4	1941	66.621475019632	1
4	1954	66.935125730777	1
4	1966	67.11161250397	1
4	1976	67.339372355687	1
4	1986	67.500145453685	1
4	2005	68.193560828284	1
4	2009	68.274976723314	1
4	2034	69.635245102215	1
4	2041	69.87643409342	1
4	2050	70.010689279249	1
4	2063	70.27818090859	1
4	2078	70.608356126615	1
4	2094	71.279401616994	1
4	2112	72.190983771877	1
4	2125	72.90718232026	1
4	2132	73.183934302838	1
4	2147	73.516466775895	1
4	2150	73.568909788847	1
4	2163	73.846719101755	1
4	2183	74.568726579166	1
4	2196	75.246444822628	1
4	2210	75.556492136793	1
4	2226	76.538809668011	1
4	2229	76.637638266249	1
4	2248	77.143294347747	1
4	2262	78.082930180258	1
4	2276	78.808256392679	1
4	2282	78.948752302395	1
4	2305	80.208171167915	1
4	2312	80.329858505805	1
4	2315	80.348535919398	1
4	2325	80.558307796282	1
4	2354	81.496481228561	1
4	2360	81.715902794873	1
4	2370	81.861586656199	1
4	2377	81.981010649088	1
4	2395	82.27162707373	1
4	2401	82.35861974546	1
4	2424	83.075637344912	1
4	2431	83.304389608018	1
4	2453	83.87281371291	1
4	2466	84.702082248292	1
4	2470	84.773708185237	1
4	2489	85.46904776646	1
4	2501	85.952858442193	1
4	2514	86.413578892566	1
4	2517	86.445873947407	1
4	2528	86.7542197314	1
4	2539	86.952993911124	1
4	2552	87.241291196128	1
4	2566	87.99537219957	2
4	2575	88.284677354767	1
4	2589	88.535822530619	1
4	2610	89.829519463799	1
4	2623	90.241686561866	1
4	2640	90.844076791971	1
4	2653	91.430222654293	1
4	2656	91.449330500279	1
4	2675	92.224069326214	1
4	2689	92.862128981482	1
4	2702	93.505298233236	1
4	2716	93.829439944054	1
4	2719	93.832665954498	1
4	2723	93.921105790012	2
4	2738	94.166432329054	2
4	2751	94.390344659357	1
4	2766	94.670249554275	2
4	2797	95.933240413193	1
4	2800	95.958934993116	1
4	2805	96.066675600303	1
4	2817	96.417526550538	1
4	2840	97.172731059356	1
4	2856	97.593890019692	1
4	2863	97.826506335108	1
4	2882	98.619810952936	1
4	2892	99.017445432198	1
4	2909	100.29725858318	1
4	2913	100.389865679272	1
4	2918	100.451576618565	1
4	2941	101.20444025186	1
4	2948	101.322306156441	1
4	2961	101.713590268147	2
4	2976	102.19794210854	1
4	2987	102.464465996966	1
4	2994	102.528415396594	1
4	3015	103.248366200401	1
4	3021	103.362533044222	1
4	3033	103.716169512213	1
4	3048	104.101073793115	1
4	3057	104.344974190317	1
4	3063	104.428564353962	1
4	3065	104.437268490482	2
4	3095	105.123210916019	1
4	3110	105.641294674842	1
4	3124	106.516427762279	1
4	3134	106.81775763452	1
4	3137	106.833172043134	1
4	3144	106.94531420229	1
4	3157	107.287613774329	1
4	3173	107.647485609782	1
4	3191	108.36492497536	1
4	3201	108.697646841699	1
4	3224	110.360163896084	1
4	3234	110.661014537366	1
4	3242	110.8052672202	1
4	3248	110.942611767623	1
4	3254	111.025972968044	1
4	3271	111.363141892023	1
4	3291	112.305055964651	1
4	3313	114.179173976138	1
4	3331	115.2586802787	1
4	3348	115.698165552626	1
4	3351	115.797194535683	1
4	3366	116.244069514328	2
4	3373	116.506218775233	2
4	3389	117.589658797706	3
4	3411	118.161260982925	2
4	3436	119.63903133103	1
4	3453	120.478983082488	1
4	3464	120.874855858632	1
4	3469	120.957770066199	1
4	3474	121.038860559947	1
4	3492	121.530950011941	1
4	3504	121.754560294038	1
4	3518	122.496791772739	2
4	3541	123.798354898024	1
4	3551	124.15739757685	1
4	3559	124.346697656679	1
4	3563	124.427690583133	1
4	3585	124.977148903941	1
4	3589	124.993427793221	1
4	3594	125.27312367692	2
4	3607	125.421910165703	3
4	3616	125.641982194674	1
4	3642	126.384296552084	1
4	3654	126.722558472093	1
4	3657	126.743168117239	1
4	3679	127.519072180053	1
4	3682	127.522784879588	1
4	3695	127.980628236395	1
4	3707	128.182595574018	1
4	3730	129.076728674911	1
4	3733	129.106310028989	1
4	3747	129.561855894951	1