version 3
run FeedbackVersion-4-20240511-20:48:08-11935
attr configname FeedbackVersion
attr datetime 20240511-20:48:08
attr datetimef 20240511-204808
attr experiment FeedbackVersion
attr inifile omnetpp.ini
attr iterationvars $genInterval=0.3
attr iterationvarsd genInterval=0.3
attr iterationvarsf genInterval=0.3-
attr measurement $genInterval=0.3
attr network NetworkFV
attr processid 11935
attr repetition 0
attr replication #0
attr resultdir results
attr runnumber 4
attr seedset 4
itervar genInterval 0.3
config network NetworkFV
config sim-time-limit 200s
config NetworkFV.nodeTx.gen.generationInterval exponential(0.3)
config NetworkFV.nodeTx.gen.packetByteSize 12500
config NetworkFV.queueOne.bufferSize 200
config NetworkFV.nodeRx.queue.bufferSize 200
config NetworkFV.nodeTx.queue.bufferSize 2000000
config NetworkFV.queueZero.bufferSize 200

vector 0 NetworkFV.nodeRx.queue PacketsLost ETV
vector 1 NetworkFV.nodeRx.queue PacketsAsked ETV
vector 2 NetworkFV.queueOne bufferSize ETV
vector 3 NetworkFV.nodeTx.gen packetGen ETV
vector 4 NetworkFV.nodeTx.queue BufferSize ETV
vector 5 NetworkFV.nodeTx.queue PacketsSent ETV
vector 6 NetworkFV.queueZero bufferSize ETV
vector 7 NetworkFV.nodeRx.queue BufferSize ETV
vector 8 NetworkFV.nodeRx.sink Delay ETV
vector 9 NetworkFV.nodeRx.sink packetUsed ETV
0	1	0	1
0	6	0.2	1
0	7	0.4	1
0	8	0.6	1
0	9	0.8	1
0	10	1	1
0	17	1.2	1
0	36	1.7002	1
0	46	2.0004	1
0	60	2.6008	1
0	61	2.901	1
0	68	3.2012	1
0	127	4.7022	1
0	182	6.2032	1
0	243	7.7042	1
0	262	8.3046	1
0	275	8.6048	1
0	334	10.406	1
0	338	10.7062	1
0	486	14.3086	1
0	513	15.2092	1
0	524	15.5094	1
0	548	16.41	1
0	555	16.7102	1
0	568	17.3106	1
0	712	20.6128	1
0	740	21.5134	1
0	751	22.1138	1
0	758	22.414	1
0	774	23.0144	1
0	1110	29.3186	1
0	1332	34.422	1
0	1348	35.0224	1
0	1374	35.923	1
0	1384	36.2232	1
0	1398	36.8236	1
0	1407	37.1238	1
0	1474	38.925	1
0	1499	39.8256	1
0	1701	44.3286	1
0	1760	45.8296	1
0	1776	46.1298	1
0	1891	48.8316	1
0	1898	49.1318	1
0	1941	50.3326	1
0	1981	51.5334	1
0	2013	52.434	1
0	2034	53.3346	1
0	2044	53.935	1
0	2066	54.5354	1
0	2113	55.7362	1
0	2132	56.3366	1
0	2181	57.5374	1
0	2226	58.7382	1
0	2357	61.7402	1
0	2368	62.0404	1
0	2426	63.8416	1
0	2487	65.6428	1
0	2649	69.2452	1
0	2659	69.8456	1
0	2666	70.1458	1
0	2673	70.7462	1
0	2686	71.0464	1
0	2714	71.947	1
0	2797	74.0484	1
0	2798	74.3486	1
0	2809	74.6488	1
0	2821	75.2492	1
0	2829	75.5494	1
0	2971	78.8516	1
0	3057	80.953	1
0	3077	81.5534	1
0	3150	83.6548	1
0	3160	83.955	1
0	3195	84.8556	1
0	3204	85.1558	1
0	3262	86.6568	1
0	3299	87.8576	1
0	3328	88.7582	1
0	3394	90.5594	1
0	3399	90.8596	1
0	3400	91.1598	1
0	3407	91.46	1
0	3419	92.0604	1
0	3500	93.8616	1
0	3575	95.963	1
0	3638	97.7642	1
0	3639	98.0644	1
0	3640	98.3646	1
0	3644	98.6648	1
0	3762	101.6668	1
0	3772	102.2672	1
0	3779	102.5674	1
0	3798	103.468	1
0	3802	103.7682	1
0	3844	104.969	1
0	3924	106.7702	1
0	3941	107.3706	1
0	3978	108.5714	1
0	3985	108.8716	1
0	3992	109.472	1
0	4000	109.7722	1
0	4045	111.2732	1
0	4057	111.5734	1
0	4083	112.1738	1
0	4363	118.1778	1
0	4364	118.478	1
0	4365	118.7782	1
0	4375	119.0784	1
0	4412	120.2792	1
0	4500	122.3806	1
0	4517	122.981	1
0	4548	123.8816	1
0	4570	124.7822	1
0	4583	125.0824	1
0	4623	125.983	1
0	4831	130.1858	1
0	4896	131.6868	1
0	4972	133.488	1
0	4998	134.3886	1
0	5028	135.2892	1
0	5048	135.8896	1
0	5060	136.49	1
0	5061	136.7902	1
0	5068	137.0904	1
0	5112	138.5914	1
0	5137	139.492	1
0	5144	139.7922	1
0	5289	143.6948	1
0	5290	143.995	1
0	5291	144.2952	1
0	5292	144.5954	1
0	5296	144.8956	1
0	5593	151.5	1
0	5600	151.8002	1
0	5741	154.8022	1
0	6042	161.4066	1
0	6174	164.7088	1
0	6256	166.8102	1
0	6260	167.1104	1
0	6273	167.7108	1
0	6302	168.6114	1
0	6327	169.2118	1
0	6445	171.9136	1
0	6464	172.8142	1
0	6465	173.1144	1
0	6472	173.4146	1
0	6479	174.015	1
0	6494	174.3152	1
0	6512	174.9156	1
0	6519	175.516	1
0	6528	175.8162	1
0	6556	176.7168	1
0	6566	177.3172	1
0	6577	177.6174	1
0	6605	178.518	1
0	6606	178.8182	1
0	6613	179.1184	1
0	6693	180.9196	1
0	6704	181.2198	1
0	6763	182.7208	1
0	6854	184.8222	1
0	6858	185.1224	1
0	7009	188.1244	1
0	7166	191.7268	1
0	7185	192.3272	1
0	7214	192.9276	1
0	7242	194.1284	1
0	7258	194.4286	1
0	7399	198.031	1
0	7409	198.3312	1
0	7451	199.532	1
1	1	0	2
1	17	1.2	1
1	23	1.323845695755	0
1	29	1.4	1
1	51	2.016491404947	2
1	78	3.591167559374	3
1	115	4.371761492565	5
1	170	5.788818544298	7
1	253	7.928769084729	11
1	379	11.614916844937	17
1	568	17.3106	8
1	652	18.902664905511	8
1	742	21.673041642992	12
1	889	25.067424817693	19
1	1095	28.986215395448	28
1	1389	36.296367087625	43
1	1760	45.8296	21
1	1998	52.078789893782	21
1	2132	56.3366	10
1	2231	58.843193180275	10
1	2342	60.969110753767	16
1	2533	66.389585472772	24
1	2714	71.947	12
1	2851	75.990132628514	12
1	2973	78.99829922698	18
1	3186	84.483074289553	27
1	3394	90.5594	13
1	3536	94.766169671763	13
1	3701	100.000287188733	20
1	3844	104.969	10
1	3951	107.669801554575	10
1	4057	111.5734	5
1	4123	112.771112732275	5
1	4171	113.771112732275	7
1	4245	115.171112732275	11
1	4354	117.813857882398	17
1	4500	122.3806	8
1	4597	125.416026108034	8
1	4689	127.212208815243	12
1	4811	129.612208815243	19
1	5010	134.642981374676	29
1	5112	138.5914	14
1	5271	142.996145048733	14
1	5437	147.762054693236	21
1	5649	152.807371332699	32
1	5988	160.037953639326	49
1	6302	168.6114	24
1	6479	174.015	8
1	6566	177.3172	2
1	6596	178.131409552432	2
1	6626	179.456130408776	4
1	6684	180.391984552519	6
1	6746	182.22166886906	9
1	6845	184.511766399523	13
1	6988	187.728352654542	20
1	7195	192.542071494934	31
1	7451	199.532	15
2	2	0	1
2	18	1.2	1
2	25	1.323845695755	1
2	30	1.4	1
2	53	2.016491404947	1
2	80	3.591167559374	1
2	117	4.371761492565	1
2	172	5.788818544298	1
2	255	7.928769084729	1
2	381	11.614916844937	1
2	569	17.3106	1
2	654	18.902664905511	1
2	744	21.673041642992	1
2	891	25.067424817693	1
2	1097	28.986215395448	1
2	1391	36.296367087625	1
2	1761	45.8296	1
2	2000	52.078789893782	1
2	2133	56.3366	1
2	2233	58.843193180275	1
2	2344	60.969110753767	1
2	2535	66.389585472772	1
2	2715	71.947	1
2	2853	75.990132628514	1
2	2975	78.99829922698	1
2	3188	84.483074289553	1
2	3395	90.5594	1
2	3538	94.766169671763	1
2	3703	100.000287188733	1
2	3845	104.969	1
2	3953	107.669801554575	1
2	4058	111.5734	1
2	4125	112.771112732275	1
2	4173	113.771112732275	1
2	4247	115.171112732275	1
2	4356	117.813857882398	1
2	4501	122.3806	1
2	4599	125.416026108034	1
2	4691	127.212208815243	1
2	4813	129.612208815243	1
2	5012	134.642981374676	1
2	5113	138.5914	1
2	5273	142.996145048733	1
2	5439	147.762054693236	1
2	5651	152.807371332699	1
2	5990	160.037953639326	1
2	6303	168.6114	1
2	6480	174.015	1
2	6567	177.3172	1
2	6598	178.131409552432	1
2	6628	179.456130408776	1
2	6686	180.391984552519	1
2	6748	182.22166886906	1
2	6847	184.511766399523	1
2	6990	187.728352654542	1
2	7197	192.542071494934	1
2	7452	199.532	1
3	11	1.023645695755	1
3	37	1.716291404947	1
3	43	1.954004200535	1
3	47	2.010878873098	1
3	62	3.090967559374	1
3	84	3.671561492565	1
3	98	4.04794769467	1
3	111	4.329689324744	1
3	124	4.688618544298	1
3	133	4.961678494307	1
3	140	5.034716621522	1
3	144	5.080474681701	1
3	179	6.20283556729	1
3	183	6.279112048942	1
3	185	6.28098697275	1
3	200	6.640603198289	1
3	206	6.728103142595	1
3	232	7.428569084729	1
3	238	7.599737277222	1
3	249	7.900425144134	1
3	263	8.353823177207	1
3	266	8.35537492848	1
3	268	8.421451149347	1
3	281	8.67629075593	1
3	304	9.272608248886	1
3	311	9.407196610953	1
3	335	10.636714555671	1
3	342	10.914716844937	1
3	348	10.968398238985	1
3	358	11.117557016163	1
3	369	11.390451326963	1
3	387	11.891761955989	1
3	390	11.894469969879	1
3	398	12.178901420116	1
3	410	12.325508783341	1
3	416	12.418476365327	1
3	420	12.432025805336	1
3	434	12.741800928387	1
3	465	13.683356031649	1
3	480	14.183257105652	1
3	487	14.355145428615	1
3	490	14.360907840633	1
3	514	15.253553275676	1
3	517	15.265731245021	1
3	530	15.728694281047	1
3	549	16.598841881528	1
3	562	17.202464905511	1
3	573	17.379831240579	1
3	576	17.436876429218	1
3	588	17.611545277627	1
3	591	17.634917065966	1
3	593	17.655307436794	1
3	610	17.930752219452	1
3	613	17.988777127193	1
3	619	18.043943948924	1
3	642	18.646656218649	1
3	660	19.043235661364	1
3	683	19.599699348536	1
3	692	19.757198953536	1
3	709	20.534892365844	1
3	716	20.760067308708	1
3	734	21.372841642992	1
3	752	22.20496206433	1
3	765	22.745972110017	1
3	771	22.967224817693	1
3	778	23.057950690631	1
3	783	23.092302481932	1
3	785	23.103226434054	1
3	789	23.154898622937	1
3	793	23.232826362542	1
3	810	23.469197368243	1
3	812	23.540362715873	1
3	824	23.763318726297	1
3	830	23.82311775586	1
3	845	24.127628251493	1
3	851	24.241618437443	1
3	859	24.395614779182	1
3	865	24.478356088981	1
3	876	24.793135726998	1
3	883	24.934313716128	1
3	895	25.086015395448	1
3	911	25.386458873227	1
3	923	25.679841792708	1
3	930	25.755548827778	1
3	954	26.193085746678	1
3	957	26.23789730319	1
3	963	26.29705742	1
3	975	26.55517020022	1
3	986	26.696447785042	1
3	994	26.826456138385	1
3	1005	27.035923992163	1
3	1016	27.225116783715	1
3	1029	27.573263488772	1
3	1039	27.706571913617	1
3	1045	27.794352019004	1
3	1049	27.820401686107	1
3	1057	28.063131337942	1
3	1063	28.150602066733	1
3	1075	28.444795527734	1
3	1078	28.459365315474	1
3	1104	29.136939112769	1
3	1138	29.932184932583	1
3	1149	30.067411673936	1
3	1154	30.148223419108	1
3	1169	30.452689893039	1
3	1188	30.952341516286	1
3	1191	31.016094011022	1
3	1198	31.056558843428	1
3	1210	31.263182381062	1
3	1213	31.286800025712	1
3	1217	31.347231302948	1
3	1234	31.694346812362	1
3	1262	32.446062267579	1
3	1290	33.327720589736	1
3	1298	33.497316787589	1
3	1304	33.611112823131	1
3	1326	34.143031996128	1
3	1339	34.769933081276	1
3	1345	34.931688423095	1
3	1359	35.291051454822	1
3	1375	35.996167087625	1
3	1381	36.128357903462	1
3	1385	36.284027950368	1
3	1399	36.988855788373	1
3	1405	37.109525417679	1
3	1410	37.251208627256	1
3	1427	37.505895537405	1
3	1446	38.068546673158	1
3	1468	38.628705630261	1
3	1478	39.025353694823	1
3	1493	39.617368979614	1
3	1503	39.977543573471	1
3	1512	40.249214186989	1
3	1527	40.581367735987	1
3	1530	40.607906173818	1
3	1532	40.632913886999	1
3	1547	40.905758034526	1
3	1550	40.919460606661	1
3	1554	41.003952202064	1
3	1559	41.033963970846	1
3	1578	41.429659509036	1
3	1584	41.503211190898	1
3	1607	42.178355015375	1
3	1626	42.67190026325	1
3	1638	42.888817672687	1
3	1641	42.920552663183	1
3	1657	43.198124491454	1
3	1660	43.218047012657	1
3	1662	43.238231394903	1
3	1695	44.102688336438	1
3	1702	44.335695717887	1
3	1705	44.389029106144	1
3	1710	44.43052743742	1
3	1725	44.699380975664	1
3	1738	44.985394109411	1
3	1765	45.886249333956	1
3	1771	46.021851464566	1
3	1777	46.158927779804	1
3	1796	46.596920437222	1
3	1799	46.603477178191	1
3	1801	46.618402620038	1
3	1811	46.839015169838	1
3	1813	46.873914012885	1
3	1820	46.983937082416	1
3	1839	47.329563042594	1
3	1858	47.866758459719	1
3	1869	48.08362624318	1
3	1892	48.878710386484	1
3	1899	49.133048744802	1
3	1902	49.174460463182	1
3	1923	49.731267288676	1
3	1938	50.264864767356	1
3	1945	50.465540273782	1
3	1962	50.929131727358	1
3	1975	51.427579211762	1
3	1985	51.778589893782	1
3	1994	51.992744059485	1
3	2007	52.308069028895	1
3	2028	53.09211210881	1
3	2041	53.922889496079	1
3	2052	54.252708267775	1
3	2057	54.333524075402	1
3	2062	54.381830740196	1
3	2072	54.578852140021	1
3	2079	54.71488019785	1
3	2107	55.501752887563	1
3	2120	56.104224039868	1
3	2123	56.162812517704	1
3	2128	56.292179058716	1
3	2137	56.342005440818	1
3	2144	56.404861135141	1
3	2175	57.434478408183	1
3	2182	57.626429332756	1
3	2190	57.74239980895	1
3	2198	57.892059622452	1
3	2220	58.542993180275	1
3	2227	58.832424777985	1
3	2243	59.068910753767	1
3	2254	59.241128940033	1
3	2263	59.380266794676	1
3	2268	59.470972403346	1
3	2272	59.515148793396	1
3	2282	59.674698314473	1
3	2286	59.710505835518	1
3	2295	59.873424769539	1
3	2299	59.895933417085	1
3	2326	60.594063949398	1
3	2329	60.658482322332	1
3	2358	61.826387695608	1
3	2361	61.827266961517	1
3	2369	62.120372987605	1
3	2395	62.748539462135	1
3	2398	62.774594044841	1
3	2420	63.604621397629	1
3	2430	64.00077194105	1
3	2439	64.210309161176	1
3	2454	64.550909535556	1
3	2468	64.963806582545	1
3	2481	65.488456010343	1
3	2488	65.689385472772	1
3	2497	65.817446342031	1
3	2500	65.818624923235	1
3	2502	65.836830339385	1
3	2514	66.022983070539	1
3	2526	66.306870315231	1
3	2529	66.354028722261	1
3	2539	66.393750485954	1
3	2546	66.504545945282	1
3	2568	66.93209333935	1
3	2584	67.351861122423	1
3	2604	67.826441968898	1
3	2620	68.248831485962	1
3	2629	68.406423873827	1
3	2646	69.154953913269	1
3	2660	70.0185921529	1
3	2674	70.823697587265	1
3	2677	70.88096577194	1
3	2679	70.909305701112	1
3	2706	71.766545076903	1
3	2709	71.83173255546	1
3	2721	72.019653825883	1
3	2735	72.2669508915	1
3	2751	72.698851392687	1
3	2754	72.701995815841	1
3	2769	73.121287597491	1
3	2776	73.199656860594	1
3	2799	74.391984797667	1
3	2802	74.403252232204	1
3	2822	75.489932628514	1
3	2825	75.51637957429	1
3	2827	75.528654649488	1
3	2841	75.854336018263	1
3	2844	75.859166075646	1
3	2859	76.121958077789	1
3	2872	76.35707028276	1
3	2888	76.746404842379	1
3	2892	76.756744271141	1
3	2918	77.460945655309	1
3	2930	77.782377285447	1
3	2933	77.787434979062	1
3	2943	78.01708750947	1
3	2965	78.69809922698	1
3	2979	79.027585487752	1
3	2988	79.237879410175	1
3	2997	79.412544054045	1
3	3010	79.698756981269	1
3	3017	79.794187596909	1
3	3022	79.837607126244	1
3	3048	80.73434701722	1
3	3054	80.925926570284	1
3	3069	81.316809853355	1
3	3081	81.61881359917	1
3	3084	81.62071680545	1
3	3093	81.823773570201	1
3	3097	81.855157728792	1
3	3125	82.659058952932	1
3	3132	82.958709871201	1
3	3151	83.782874289553	1
3	3157	83.884793017906	1
3	3166	84.092714045478	1
3	3173	84.249796981868	1
3	3182	84.407901517202	1
3	3196	84.864235031358	1
3	3212	85.363779075257	1
3	3223	85.494933401577	1
3	3233	85.71249302484	1
3	3256	86.492825119106	1
3	3263	86.69464568053	1
3	3278	87.077020189893	1
3	3293	87.689992747755	1
3	3300	87.930832104097	1
3	3318	88.615936899713	1
3	3321	88.675825378595	1
3	3326	88.720786962419	1
3	3331	88.878869088713	1
3	3348	89.271174590998	1
3	3365	89.702933537109	1
3	3376	89.952893895638	1
3	3401	91.35935565862	1
3	3414	92.024244134863	1
3	3417	92.047195848117	1
3	3423	92.161256355527	1
3	3425	92.204678297956	1
3	3444	92.625229191967	1
3	3461	93.029402908266	1
3	3467	93.127634274095	1
3	3488	93.665969671763	1
3	3491	93.704175406979	1
3	3493	93.732064331891	1
3	3498	93.809299834749	1
3	3518	94.339861491799	1
3	3542	94.785989914185	1
3	3556	95.249552056338	1
3	3569	95.714420103591	1
3	3579	96.064058566697	1
3	3591	96.379627349787	1
3	3599	96.504248539708	1
3	3605	96.614446529617	1
3	3615	96.79083449056	1
3	3641	98.576968138171	1
3	3648	98.713839133544	1
3	3653	98.818550059033	1
3	3673	99.369199646326	1
3	3685	99.700087188733	1
3	3693	99.819480118099	1
3	3697	99.911543870821	1
3	3707	100.028380792043	1
3	3716	100.193025212778	1
3	3744	101.014381039424	1
3	3759	101.64324238605	1
3	3773	102.400913547353	1
3	3780	102.673378984048	1
3	3799	103.712372285997	1
3	3803	103.811137124023	1
3	3819	104.305511155138	1
3	3834	104.720491256975	1
3	3837	104.747769349192	1
3	3854	105.138056202667	1
3	3857	105.166649736948	1
3	3873	105.517796923322	1
3	3886	105.762108161106	1
3	3898	105.942344580394	1
3	3915	106.524110269721	1
3	3921	106.72283987711	1
3	3938	107.369601554575	1
3	3945	107.525467415348	1
3	3960	107.829348107142	1
3	3979	108.740129572909	1
3	3993	109.675869915776	1
3	3996	109.680856211167	1
3	3998	109.730278136084	1
3	4004	109.843064573605	1
3	4008	109.918211646214	1
3	4046	111.3032909714	1
3	4052	111.424553564594	1
3	4073	112.070912732275	1
3	4076	112.159951746687	1
3	4078	112.165994914432	1
3	4086	112.278274264464	1
3	4088	112.310815615908	1
3	4090	112.348636158362	1
3	4097	112.378277654268	1
3	4104	112.519442057125	1
3	4111	112.612133106929	1
3	4114	112.621200979813	1
3	4119	112.68625538564	1
3	4132	112.917770762463	1
3	4140	113.068100849583	1
3	4179	113.942779820341	1
3	4205	114.410193031635	1
3	4216	114.586896864311	1
3	4219	114.614567823476	1
3	4233	114.908139957171	1
3	4239	115.050509771266	1
3	4254	115.334389700004	1
3	4265	115.483500076632	1
3	4295	116.2961214667	1
3	4305	116.404140248285	1
3	4321	116.802003912012	1
3	4330	116.991073920804	1
3	4346	117.513657882398	1
3	4366	118.915811900295	1
3	4372	119.038585808334	1
3	4387	119.451190286684	1
3	4402	120.165239647237	1
3	4405	120.191528697488	1
3	4407	120.252975876011	1
3	4420	120.539611681624	1
3	4431	120.696877289719	1
3	4434	120.762037348417	1
3	4451	121.163233728937	1
3	4462	121.307048417626	1
3	4469	121.428743326091	1
3	4497	122.312466934819	1
3	4514	122.964287429749	1
3	4518	123.044799562795	1
3	4537	123.636042147415	1
3	4543	123.79218335083	1
3	4546	123.846322856523	1
3	4571	124.915826108034	1
3	4574	124.994526305294	1
3	4576	125.008001198528	1
3	4581	125.024159083097	1
3	4586	125.124903548239	1
3	4609	125.712008815243	1
3	4614	125.806612814725	1
3	4621	125.93091533883	1
3	4633	126.117358571889	1
3	4640	126.267248484059	1
3	4652	126.433155687023	1
3	4657	126.527719146058	1
3	4673	126.950464369854	1
3	4676	126.989916822094	1
3	4682	127.076821429852	1
3	4695	127.259981648447	1
3	4725	127.857075041143	1
3	4730	127.937327934004	1
3	4742	128.203081421921	1
3	4756	128.451533257835	1
3	4772	128.820982581017	1
3	4775	128.888964336695	1
3	4777	128.896683305006	1
3	4789	129.111538834775	1
3	4795	129.155516942748	1
3	4825	130.044356411036	1
3	4834	130.281522126516	1
3	4841	130.421007233443	1
3	4848	130.512086538817	1
3	4880	131.437252989675	1
3	4885	131.498424936643	1
3	4887	131.516097152884	1
3	4892	131.550380934887	1
3	4902	131.789137714461	1
3	4904	131.817626265754	1
3	4920	132.092361640941	1
3	4931	132.317286046927	1
3	4964	133.296395589701	1
3	4967	133.364959792476	1
3	4987	134.142781374676	1
3	4993	134.246739681118	1
3	5002	134.461299930159	1
3	5025	135.239129466968	1
3	5038	135.666622736749	1
3	5041	135.726331318749	1
3	5062	136.844060119602	1
3	5072	137.151023291245	1
3	5084	137.551134171642	1
3	5089	137.582925792703	1
3	5109	138.506372969962	1
3	5120	138.67827425199	1
3	5138	139.516817690024	1
3	5150	139.91762456474	1
3	5157	140.114823755355	1
3	5173	140.643090523344	1
3	5183	140.966640113563	1
3	5192	141.114462322946	1
3	5195	141.173942598317	1
3	5197	141.209535201427	1
3	5209	141.381890405237	1
3	5221	141.621626253542	1
3	5243	142.224879053925	1
3	5260	142.695945048733	1
3	5267	142.954224610078	1
3	5293	144.821393814979	1
3	5297	144.919717454771	1
3	5315	145.461854693236	1
3	5319	145.501157095197	1
3	5326	145.727072357873	1
3	5333	145.806205465054	1
3	5344	145.966045579681	1
3	5347	146.00610244962	1
3	5349	146.025485416565	1
3	5356	146.10537136816	1
3	5363	146.170827273265	1
3	5369	146.315975296745	1
3	5381	146.497422377471	1
3	5383	146.510576136318	1
3	5390	146.639686928055	1
3	5413	147.187053618843	1
3	5416	147.247879472795	1
3	5425	147.403038364918	1
3	5449	148.013782724865	1
3	5460	148.265143734789	1
3	5467	148.395492017634	1
3	5483	148.698782912665	1
3	5490	148.752938107275	1
3	5492	148.795698333929	1
3	5499	148.898800504226	1
3	5506	148.924699205301	1
3	5525	149.335621913469	1
3	5528	149.386691981241	1
3	5559	150.295594080447	1
3	5594	151.581058056503	1
3	5604	151.907171332699	1
3	5607	151.940288355925	1
3	5614	152.056148019496	1
3	5624	152.220943078344	1
3	5635	152.431817407474	1
3	5661	153.055799539925	1
3	5664	153.084315209894	1
3	5674	153.347635067356	1
3	5688	153.647773715864	1
3	5691	153.653080476872	1
3	5704	153.882808849845	1
3	5727	154.541473617863	1
3	5733	154.646103967913	1
3	5738	154.79152838526	1
3	5752	155.047019084661	1
3	5755	155.10209867204	1
3	5767	155.256197108578	1
3	5774	155.379572577957	1
3	5794	155.859558553184	1
3	5805	156.130088668365	1
3	5815	156.261929439721	1
3	5818	156.273472233501	1
3	5825	156.383665144591	1
3	5840	156.692930372097	1
3	5843	156.736047183178	1
3	5857	157.018611599934	1
3	5882	157.678107483257	1
3	5887	157.756047378471	1
3	5895	157.912692139832	1
3	5905	158.079239183875	1
3	5927	158.68019331	1
3	5931	158.744714290866	1
3	5944	159.137753639326	1
3	5947	159.144221822056	1
3	5960	159.416497895762	1
3	5974	159.679561121366	1
3	5996	160.186050899873	1
3	6003	160.362880108304	1
3	6017	160.691197567118	1
3	6032	161.244853230502	1
3	6035	161.292726294684	1
3	6040	161.359315438217	1
3	6052	161.650040391187	1
3	6061	161.824307030503	1
3	6066	161.845745981808	1
3	6081	162.176039583892	1
3	6105	162.864497212654	1
3	6108	162.885731683902	1
3	6122	163.346324190806	1
3	6133	163.478032292761	1
3	6136	163.479196339475	1
3	6149	163.826739707511	1
3	6171	164.640098079875	1
3	6175	164.72443790889	1
3	6180	164.798175899221	1
3	6184	164.933932216553	1
3	6192	165.02626325373	1
3	6205	165.284636235218	1
3	6228	165.924239908031	1
3	6239	166.082242878654	1
3	6257	167.031557410386	1
3	6270	167.659696249736	1
3	6274	167.742433696123	1
3	6293	168.332013254338	1
3	6299	168.534567808897	1
3	6321	169.073256296805	1
3	6333	169.478117893152	1
3	6340	169.644797414343	1
3	6349	169.855756918681	1
3	6354	169.919021380348	1
3	6356	169.929106865062	1
3	6373	170.234656322643	1
3	6378	170.304221951813	1
3	6388	170.471888132603	1
3	6410	171.023645932701	1
3	6420	171.235094717497	1
3	6439	171.796711534051	1
3	6449	172.112560857828	1
3	6466	173.218984281206	1
3	6484	174.062715335689	1
3	6487	174.136549060598	1
3	6504	174.632017478373	1
3	6520	175.641436015408	1
3	6523	175.68088461525	1
3	6531	175.931629843278	1
3	6553	176.645671284931	1
3	6571	177.492116120021	1
3	6581	177.831209552432	1
3	6584	177.862550924134	1
3	6592	177.977996183307	1
3	6607	178.955930408776	1
3	6619	179.348722618477	1
3	6632	179.491784552519	1
3	6640	179.685071041244	1
3	6645	179.721164866587	1
3	6656	179.968163880747	1
3	6659	179.983338715967	1
3	6671	180.237805487818	1
3	6676	180.302920817383	1
3	6680	180.352202574508	1
3	6694	180.92146886906	1
3	6700	181.056285558798	1
3	6710	181.259654337628	1
3	6721	181.431323582428	1
3	6755	182.611566399523	1
3	6758	182.629403866019	1
3	6771	182.952196963712	1
3	6793	183.338112677102	1
3	6798	183.433532182129	1
3	6807	183.552248151111	1
3	6818	183.863318522481	1
3	6827	184.057686281476	1
3	6833	184.140865498696	1
3	6855	185.028152654542	1
3	6869	185.337107583007	1
3	6894	185.94452163223	1
3	6897	185.980011763343	1
3	6904	186.075700095559	1
3	6911	186.206718136298	1
3	6923	186.360101703612	1
3	6933	186.587200680497	1
3	6946	186.841254012169	1
3	6949	186.841661049574	1
3	6951	186.879834493636	1
3	6961	187.112433472059	1
3	6979	187.589595328403	1
3	6984	187.722654261318	1
3	6997	187.840012864411	1
3	7005	188.058836800998	1
3	7007	188.095700269933	1
3	7015	188.167830316319	1
3	7031	188.536309805381	1
3	7063	189.254793894461	1
3	7074	189.471819052694	1
3	7094	190.029629472275	1
3	7097	190.037871789457	1
3	7101	190.122103300495	1
3	7118	190.37030141291	1
3	7142	191.095216732655	1
3	7160	191.528659366026	1
3	7173	192.041871494934	1
3	7176	192.051331904766	1
3	7181	192.190055561907	1
3	7191	192.511577407359	1
3	7204	192.670843223316	1
3	7207	192.757204613136	1
3	7243	194.151909845006	1
3	7249	194.323335458743	1
3	7252	194.36772118358	1
3	7254	194.390192375111	1
3	7259	194.441462135678	1
3	7273	194.66939475633	1
3	7275	194.708581141872	1
3	7306	195.546805320176	1
3	7311	195.57857266293	1
3	7319	195.687646153282	1
3	7336	196.097945889769	1
3	7339	196.117639589632	1
3	7353	196.43959025317	1
3	7375	197.005199719324	1
3	7382	197.204017035654	1
3	7400	198.08863480984	1
3	7406	198.240808343141	1
3	7415	198.44344222277	1
3	7425	198.613003647035	1
3	7445	199.330459625138	1
3	7462	199.938502006517	1
4	12	1.023645695755	1
4	38	1.716291404947	1
4	44	1.954004200535	1
4	48	2.010878873098	2
4	63	3.090967559374	3
4	85	3.671561492565	2
4	99	4.04794769467	1
4	112	4.329689324744	1
4	125	4.688618544298	2
4	134	4.961678494307	1
4	141	5.034716621522	1
4	145	5.080474681701	1
4	180	6.20283556729	1
4	184	6.279112048942	1
4	186	6.28098697275	2
4	201	6.640603198289	1
4	207	6.728103142595	1
4	233	7.428569084729	1
4	239	7.599737277222	1
4	250	7.900425144134	1
4	264	8.353823177207	2
4	267	8.35537492848	2
4	269	8.421451149347	3
4	282	8.67629075593	1
4	305	9.272608248886	1
4	312	9.407196610953	1
4	336	10.636714555671	1
4	343	10.914716844937	1
4	349	10.968398238985	1
4	359	11.117557016163	1
4	370	11.390451326963	1
4	388	11.891761955989	2
4	391	11.894469969879	2
4	399	12.178901420116	1
4	411	12.325508783341	1
4	417	12.418476365327	1
4	421	12.432025805336	1
4	435	12.741800928387	1
4	466	13.683356031649	1
4	481	14.183257105652	1
4	488	14.355145428615	1
4	491	14.360907840633	1
4	515	15.253553275676	1
4	518	15.265731245021	1
4	531	15.728694281047	1
4	550	16.598841881528	1
4	563	17.202464905511	1
4	574	17.379831240579	1
4	577	17.436876429218	1
4	589	17.611545277627	1
4	592	17.634917065966	1
4	594	17.655307436794	2
4	611	17.930752219452	1
4	614	17.988777127193	1
4	620	18.043943948924	1
4	643	18.646656218649	1
4	661	19.043235661364	2
4	684	19.599699348536	1
4	693	19.757198953536	1
4	710	20.534892365844	1
4	717	20.760067308708	1
4	735	21.372841642992	1
4	753	22.20496206433	1
4	766	22.745972110017	1
4	772	22.967224817693	1
4	779	23.057950690631	1
4	784	23.092302481932	1
4	786	23.103226434054	2
4	790	23.154898622937	3
4	794	23.232826362542	3
4	811	23.469197368243	1
4	813	23.540362715873	2
4	825	23.763318726297	1
4	831	23.82311775586	1
4	846	24.127628251493	1
4	852	24.241618437443	2
4	860	24.395614779182	3
4	866	24.478356088981	4
4	877	24.793135726998	5
4	884	24.934313716128	6
4	896	25.086015395448	7
4	912	25.386458873227	4
4	924	25.679841792708	3
4	931	25.755548827778	3
4	955	26.193085746678	1
4	958	26.23789730319	1
4	964	26.29705742	1
4	976	26.55517020022	1
4	987	26.696447785042	1
4	995	26.826456138385	1
4	1006	27.035923992163	1
4	1017	27.225116783715	1
4	1030	27.573263488772	1
4	1040	27.706571913617	1
4	1046	27.794352019004	2
4	1050	27.820401686107	3
4	1058	28.063131337942	4
4	1064	28.150602066733	5
4	1076	28.444795527734	6
4	1079	28.459365315474	7
4	1105	29.136939112769	8
4	1139	29.932184932583	1
4	1150	30.067411673936	1
4	1155	30.148223419108	1
4	1170	30.452689893039	1
4	1189	30.952341516286	1
4	1192	31.016094011022	1
4	1199	31.056558843428	1
4	1211	31.263182381062	1
4	1214	31.286800025712	1
4	1218	31.347231302948	2
4	1235	31.694346812362	1
4	1263	32.446062267579	1
4	1291	33.327720589736	1
4	1299	33.497316787589	1
4	1305	33.611112823131	1
4	1327	34.143031996128	1
4	1340	34.769933081276	1
4	1346	34.931688423095	1
4	1360	35.291051454822	1
4	1376	35.996167087625	1
4	1382	36.128357903462	1
4	1386	36.284027950368	2
4	1400	36.988855788373	3
4	1406	37.109525417679	2
4	1411	37.251208627256	2
4	1428	37.505895537405	1
4	1447	38.068546673158	1
4	1469	38.628705630261	1
4	1479	39.025353694823	1
4	1494	39.617368979614	1
4	1504	39.977543573471	1
4	1513	40.249214186989	1
4	1528	40.581367735987	1
4	1531	40.607906173818	1
4	1533	40.632913886999	2
4	1548	40.905758034526	1
4	1551	40.919460606661	1
4	1555	41.003952202064	2
4	1560	41.033963970846	2
4	1579	41.429659509036	1
4	1585	41.503211190898	1
4	1608	42.178355015375	1
4	1627	42.67190026325	1
4	1639	42.888817672687	1
4	1642	42.920552663183	1
4	1658	43.198124491454	1
4	1661	43.218047012657	1
4	1663	43.238231394903	2
4	1696	44.102688336438	1
4	1703	44.335695717887	1
4	1706	44.389029106144	1
4	1711	44.43052743742	2
4	1726	44.699380975664	1
4	1739	44.985394109411	1
4	1766	45.886249333956	1
4	1772	46.021851464566	1
4	1778	46.158927779804	1
4	1797	46.596920437222	1
4	1800	46.603477178191	1
4	1802	46.618402620038	2
4	1812	46.839015169838	1
4	1814	46.873914012885	2
4	1821	46.983937082416	2
4	1840	47.329563042594	1
4	1859	47.866758459719	1
4	1870	48.08362624318	1
4	1893	48.878710386484	1
4	1900	49.133048744802	1
4	1903	49.174460463182	1
4	1924	49.731267288676	1
4	1939	50.264864767356	1
4	1946	50.465540273782	1
4	1963	50.929131727358	1
4	1976	51.427579211762	1
4	1986	51.778589893782	1
4	1995	51.992744059485	1
4	2008	52.308069028895	2
4	2029	53.09211210881	1
4	2042	53.922889496079	1
4	2053	54.252708267775	1
4	2058	54.333524075402	1
4	2063	54.381830740196	1
4	2073	54.578852140021	1
4	2080	54.71488019785	1
4	2108	55.501752887563	1
4	2121	56.104224039868	1
4	2124	56.162812517704	1
4	2129	56.292179058716	1
4	2138	56.342005440818	1
4	2145	56.404861135141	1
4	2176	57.434478408183	1
4	2183	57.626429332756	1
4	2191	57.74239980895	1
4	2199	57.892059622452	1
4	2221	58.542993180275	1
4	2228	58.832424777985	1
4	2244	59.068910753767	1
4	2255	59.241128940033	1
4	2264	59.380266794676	1
4	2269	59.470972403346	1
4	2273	59.515148793396	1
4	2283	59.674698314473	1
4	2287	59.710505835518	1
4	2296	59.873424769539	1
4	2300	59.895933417085	1
4	2327	60.594063949398	1
4	2330	60.658482322332	1
4	2359	61.826387695608	2
4	2362	61.827266961517	2
4	2370	62.120372987605	1
4	2396	62.748539462135	1
4	2399	62.774594044841	1
4	2421	63.604621397629	1
4	2431	64.00077194105	1
4	2440	64.210309161176	1
4	2455	64.550909535556	1
4	2469	64.963806582545	1
4	2482	65.488456010343	1
4	2489	65.689385472772	1
4	2498	65.817446342031	1
4	2501	65.818624923235	1
4	2503	65.836830339385	2
4	2515	66.022983070539	1
4	2527	66.306870315231	2
4	2530	66.354028722261	3
4	2540	66.393750485954	4
4	2547	66.504545945282	3
4	2569	66.93209333935	1
4	2585	67.351861122423	1
4	2605	67.826441968898	1
4	2621	68.248831485962	1
4	2630	68.406423873827	1
4	2647	69.154953913269	1
4	2661	70.0185921529	1
4	2675	70.823697587265	1
4	2678	70.88096577194	1
4	2680	70.909305701112	2
4	2707	71.766545076903	1
4	2710	71.83173255546	1
4	2722	72.019653825883	1
4	2736	72.2669508915	1
4	2752	72.698851392687	1
4	2755	72.701995815841	1
4	2770	73.121287597491	1
4	2777	73.199656860594	1
4	2800	74.391984797667	1
4	2803	74.403252232204	1
4	2823	75.489932628514	1
4	2826	75.51637957429	1
4	2828	75.528654649488	2
4	2842	75.854336018263	1
4	2845	75.859166075646	1
4	2860	76.121958077789	2
4	2873	76.35707028276	1
4	2889	76.746404842379	1
4	2893	76.756744271141	1
4	2919	77.460945655309	1
4	2931	77.782377285447	1
4	2934	77.787434979062	1
4	2944	78.01708750947	1
4	2966	78.69809922698	1
4	2980	79.027585487752	1
4	2989	79.237879410175	1
4	2998	79.412544054045	1
4	3011	79.698756981269	1
4	3018	79.794187596909	1
4	3023	79.837607126244	1
4	3049	80.73434701722	1