version 3
run FeedbackVersion-2-20240511-20:48:08-11935
attr configname FeedbackVersion
attr datetime 20240511-20:48:08
attr datetimef 20240511-204808
attr experiment FeedbackVersion
attr inifile omnetpp.ini
attr iterationvars $genInterval=0.2
attr iterationvarsd genInterval=0.2
attr iterationvarsf genInterval=0.2-
attr measurement $genInterval=0.2
attr network NetworkFV
attr processid 11935
attr repetition 0
attr replication #0
attr resultdir results
attr runnumber 2
attr seedset 2
itervar genInterval 0.2
config network NetworkFV
config sim-time-limit 200s
config NetworkFV.nodeTx.gen.generationInterval exponential(0.2)
config NetworkFV.nodeTx.gen.packetByteSize 12500
config NetworkFV.queueOne.bufferSize 200
config NetworkFV.nodeRx.queue.bufferSize 200
config NetworkFV.nodeTx.queue.bufferSize 2000000
config NetworkFV.queueZero.bufferSize 200

vector 0 NetworkFV.nodeRx.queue PacketsLost ETV
vector 1 NetworkFV.nodeRx.queue PacketsAsked ETV
vector 2 NetworkFV.queueOne bufferSize ETV
vector 3 NetworkFV.nodeTx.gen packetGen ETV
vector 4 NetworkFV.nodeTx.queue BufferSize ETV
vector 5 NetworkFV.nodeTx.queue PacketsSent ETV
vector 6 NetworkFV.queueZero bufferSize ETV
vector 7 NetworkFV.nodeRx.queue BufferSize ETV
vector 8 NetworkFV.nodeRx.sink Delay ETV
vector 9 NetworkFV.nodeRx.sink packetUsed ETV
0	1	0	1
0	13	0.2	1
0	19	0.4	1
0	64	1.5006	1
0	134	2.7014	1
0	321	6.3038	1
0	729	14.109	1
0	738	14.4092	1
0	1079	21.614	1
0	1080	21.9142	1
0	1089	22.2144	1
0	2363	48.0316	1
0	3584	71.147	1
0	5368	105.9702	1
0	9434	186.1236	1
1	1	0	2
1	27	0.614738397925	2
1	52	1.19722927424	4
1	113	2.347049733555	6
1	187	3.773041777648	10
1	302	5.980570524256	15
1	494	9.289840309045	22
1	720	13.80028526162	34
1	1070	21.089206788557	51
1	1595	32.23908924218	76
1	2344	47.668161982862	114
1	3565	70.715827139661	172
1	5347	105.473709508534	199
1	7405	145.599749315823	199
1	9411	185.635662693887	199
2	2	0	1
2	29	0.614738397925	1
2	54	1.19722927424	1
2	115	2.347049733555	1
2	189	3.773041777648	1
2	304	5.980570524256	1
2	496	9.289840309045	1
2	722	13.80028526162	1
2	1072	21.089206788557	1
2	1597	32.23908924218	1
2	2346	47.668161982862	1
2	3567	70.715827139661	1
2	5349	105.473709508534	1
2	7407	145.599749315823	1
2	9413	185.635662693887	1
3	6	0.114538397925	1
3	9	0.15547197478	1
3	11	0.160725622149	1
3	33	0.69702927424	1
3	41	0.85658085902	1
3	61	1.446849733555	1
3	68	1.56114979718	1
3	72	1.693770058208	1
3	80	1.802842361652	1
3	86	1.880132695456	1
3	92	1.960328180121	1
3	95	1.993876258359	1
3	98	2.039670517305	1
3	109	2.27970830462	1
3	122	2.472841777648	1
3	125	2.498397212233	1
3	127	2.569633561714	1
3	135	2.702419565487	1
3	137	2.764494358611	1
3	148	2.964830169755	1
3	160	3.158944621383	1
3	174	3.499943640207	1
3	181	3.650583421909	1
3	195	3.880370524256	1
3	199	3.90927857908	1
3	204	4.047333308752	1
3	213	4.191469101016	1
3	220	4.368232347101	1
3	227	4.409008370493	1
3	239	4.663426033318	1
3	255	4.971161491871	1
3	261	5.03097699788	1
3	276	5.415772884114	1
3	281	5.573795849995	1
3	290	5.710133206656	1
3	296	5.814749231701	1
3	311	6.189640309045	1
3	314	6.228596388112	1
3	316	6.245195653213	1
3	349	6.944071509278	1
3	355	7.084810467119	1
3	362	7.155295367916	1
3	364	7.168798411447	1
3	371	7.236697040012	1
3	378	7.348463075238	1
3	380	7.373166461457	1
3	386	7.393469140195	1
3	388	7.433581000757	1
3	390	7.460781597482	1
3	402	7.597139885006	1
3	409	7.778777270334	1
3	418	7.945611213717	1
3	423	7.996850996407	1
3	426	8.047014378372	1
3	429	8.06963595367	1
3	441	8.36140137449	1
3	447	8.411172176191	1
3	453	8.58339450889	1
3	458	8.669497648598	1
3	465	8.706239748247	1
3	470	8.83238222931	1
3	476	8.923988187905	1
3	479	8.969053180419	1
3	488	9.095528925266	1
3	500	9.30008526162	1
3	511	9.512502484105	1
3	519	9.644471981036	1
3	535	9.959566005198	1
3	546	10.100301174566	1
3	558	10.317872321556	1
3	565	10.415715368928	1
3	577	10.605596832298	1
3	593	10.921220975991	1
3	633	11.860064909484	1
3	642	12.033567014881	1
3	645	12.059016632358	1
3	648	12.094435346442	1
3	653	12.126601718384	1
3	662	12.367898471559	1
3	676	12.750387208039	1
3	699	13.418319719661	1
3	705	13.560796272331	1
3	711	13.699429054061	1
3	716	13.748422527581	1
3	730	14.189006788557	1
3	775	15.189132650318	1
3	779	15.272725324637	1
3	787	15.348479487453	1
3	798	15.515949580353	1
3	800	15.575828505441	1
3	807	15.687393072177	1
3	828	16.018673071187	1
3	835	16.133478438999	1
3	842	16.22076911568	1
3	859	16.520490860361	1
3	865	16.64665401336	1
3	876	16.800057617898	1
3	879	16.864146404648	1
3	910	17.478851537593	1
3	927	17.798947557242	1
3	933	17.956091368242	1
3	947	18.292641980079	1
3	950	18.309774238733	1
3	970	18.901424635715	1
3	976	18.992673941087	1
3	988	19.338864736977	1
3	1002	19.719425963769	1
3	1008	19.86420461942	1
3	1014	19.968472441597	1
3	1019	20.018420814404	1
3	1022	20.023936654421	1
3	1034	20.298518651389	1
3	1037	20.355303742053	1
3	1043	20.46826782324	1
3	1046	20.48216878838	1
3	1063	20.920563211166	1
3	1081	21.93888924218	1
3	1104	22.505589148907	1
3	1140	23.210807401393	1
3	1151	23.350645381586	1
3	1168	23.672791481638	1
3	1180	23.914952054823	1
3	1192	24.099120830404	1
3	1208	24.344324981885	1
3	1220	24.633924778554	1
3	1231	24.765103441377	1
3	1233	24.80218280446	1
3	1263	25.447532803154	1
3	1267	25.516884297978	1
3	1273	25.627917323808	1
3	1284	25.776412910837	1
3	1291	25.854392556584	1
3	1297	25.942597837071	1
3	1309	26.229635942306	1
3	1312	26.23898697221	1
3	1335	26.778493792566	1
3	1362	27.595215574836	1
3	1376	27.843631689264	1
3	1384	27.960079873881	1
3	1392	28.105806047531	1
3	1403	28.246042095029	1
3	1419	28.677689872083	1
3	1424	28.755866653631	1
3	1434	28.917189791712	1
3	1439	28.977341836083	1
3	1451	29.147837251862	1
3	1457	29.245679396786	1
3	1463	29.345832440512	1
3	1475	29.702610820427	1
3	1492	30.224832042239	1
3	1504	30.491760034912	1
3	1507	30.492872004589	1
3	1512	30.58822467084	1
3	1524	30.848982195561	1
3	1527	30.851602756775	1
3	1533	30.93953756766	1
3	1545	31.258846785212	1
3	1548	31.306735226883	1
3	1553	31.369509994182	1
3	1559	31.459401984934	1
3	1565	31.634184721056	1
3	1582	32.055424451287	1
3	1585	32.060601059226	1
3	1591	32.150900530756	1
3	1603	32.367961982862	1
3	1610	32.50787831721	1
3	1614	32.605927234423	1
3	1631	32.89769014539	1
3	1638	33.035152511339	1
3	1664	33.52694315819	1
3	1671	33.634139653392	1
3	1692	33.984303092362	1
3	1699	34.070728133271	1
3	1705	34.176847573414	1
3	1713	34.336984209951	1
3	1725	34.536290673886	1
3	1760	35.258013898711	1
3	1767	35.341697102365	1
3	1769	35.365628709361	1
3	1776	35.461782725693	1
3	1783	35.536942198603	1
3	1812	36.19340958722	1
3	1815	36.201948859492	1
3	1827	36.410214364026	1
3	1841	36.678401908401	1
3	1863	37.311685491237	1
3	1874	37.525989447021	1
3	1887	37.851359299073	1
3	1893	37.899680829767	1
3	1897	37.95179435631	1
3	1903	38.059623408465	1
3	1924	38.482350568723	1
3	1934	38.688826694538	1
3	1945	38.86836777888	1
3	1956	39.085002982291	1
3	1969	39.393519877343	1
3	1972	39.430900797626	1
3	1981	39.582819930606	1
3	1999	40.009645486039	1
3	2024	40.699873733666	1
3	2037	41.00089666264	1
3	2048	41.172008021219	1
3	2051	41.200771520949	1
3	2058	41.330346409994	1
3	2076	41.736730759263	1
3	2083	41.846069120633	1
3	2097	42.122352677418	1
3	2107	42.305101459242	1
3	2120	42.625579674372	1
3	2124	42.648117699772	1
3	2133	42.804883221121	1
3	2140	42.89684875054	1
3	2145	42.946755988383	1
3	2149	42.995375857782	1
3	2171	43.496704840324	1
3	2184	43.825936776937	1
3	2195	44.005275859446	1
3	2209	44.325391899648	1
3	2214	44.410394254519	1
3	2226	44.572123582704	1
3	2229	44.633368440747	1
3	2250	45.084405216923	1
3	2268	45.57489034433	1
3	2286	46.104299900024	1
3	2291	46.213154135246	1
3	2317	46.973191353917	1
3	2323	47.128580394369	1
3	2340	47.628102730248	1
3	2353	47.815627139661	1
3	2356	47.823793879214	1
3	2369	48.173821238639	1
3	2385	48.437789638845	1
3	2397	48.633190650618	1
3	2416	49.086583815089	1
3	2422	49.125473694125	1
3	2436	49.489296392139	1
3	2447	49.66823030273	1
3	2457	49.822000103262	1
3	2466	49.956381443355	1
3	2471	50.033902134708	1
3	2481	50.192675952636	1
3	2488	50.293927829709	1
3	2502	50.534403060714	1
3	2505	50.599393806984	1
3	2511	50.655816305562	1
3	2532	51.206367386039	1
3	2537	51.247680517458	1
3	2545	51.372308722291	1
3	2547	51.395746572508	1
3	2566	51.778246042068	1
3	2571	51.842303419809	1
3	2575	51.890149716735	1
3	2577	51.892210303672	1
3	2579	51.892235022035	1
3	2591	52.09073968206	1
3	2593	52.110239375031	1
3	2600	52.180199757311	1
3	2604	52.21870235336	1
3	2607	52.260177690232	1
3	2616	52.404840900873	1
3	2620	52.424868635446	1
3	2642	52.848905261922	1
3	2646	52.915652085353	1
3	2665	53.22288206903	1
3	2668	53.27127711618	1
3	2677	53.422205552125	1
3	2682	53.489469046899	1
3	2689	53.553465440673	1
3	2695	53.680973826088	1
3	2697	53.686321516835	1
3	2709	53.845799544929	1
3	2726	54.253395937147	1
3	2742	54.626407984492	1
3	2746	54.690845536008	1
3	2778	55.58409605986	1
3	2781	55.61547603422	1
3	2785	55.625496537354	1
3	2792	55.766302427062	1
3	2798	55.819126332898	1
3	2803	55.90074845304	1
3	2814	56.106926897647	1
3	2820	56.142201657496	1
3	2822	56.177421822684	1
3	2828	56.226932119129	1
3	2849	56.635200861936	1
3	2863	56.997410912675	1
3	2869	57.046438245625	1
3	2880	57.301280124008	1
3	2894	57.572049464783	1
3	2897	57.582621672512	1
3	2909	57.794319593717	1
3	2920	57.989566138003	1
3	2933	58.31034232846	1
3	2939	58.377792226663	1
3	2941	58.38414146286	1
3	2960	58.719237724323	1
3	2963	58.771400065648	1
3	2975	58.929275611809	1
3	2986	59.173179213375	1
3	2989	59.176867012207	1
3	2991	59.195194152009	1
3	2993	59.198442441269	1
3	2995	59.204655861538	1
3	3024	59.751439425635	1
3	3029	59.839803511361	1
3	3036	59.938854894206	1
3	3048	60.117068200687	1
3	3064	60.600119357504	1
3	3067	60.61084650662	1
3	3085	60.95321304545	1
3	3088	60.966796807333	1
3	3090	60.985740361554	1
3	3092	60.994635507795	1
3	3098	61.083343779103	1
3	3105	61.183898987429	1
3	3107	61.187732519333	1
3	3119	61.408514005627	1
3	3128	61.528091123163	1
3	3133	61.572227219134	1
3	3135	61.578395003286	1
3	3156	61.99631997382	1
3	3162	62.05935912423	1
3	3170	62.172622950384	1
3	3172	62.173140133403	1
3	3183	62.366468323102	1
3	3190	62.480210800826	1
3	3195	62.548829108834	1
3	3206	62.725775022858	1
3	3218	62.916809699952	1
3	3248	63.882079061863	1
3	3270	64.496428859606	1
3	3279	64.610799217683	1
3	3289	64.729645995559	1
3	3294	64.819663415212	1
3	3299	64.866062395687	1
3	3316	65.278976670396	1
3	3324	65.389781513813	1
3	3333	65.522520070678	1
3	3338	65.640124143697	1
3	3347	65.912531950646	1
3	3356	66.054231828715	1
3	3367	66.334863747265	1
3	3373	66.484060818603	1
3	3379	66.562279554075	1
3	3382	66.57095067578	1
3	3393	66.836821145509	1
3	3396	66.872746764906	1
3	3399	66.913804970954	1
3	3408	67.033454998922	1
3	3411	67.061788855317	1
3	3420	67.307969408143	1
3	3423	67.309973799832	1
3	3435	67.610618472986	1
3	3440	67.703993316757	1
3	3452	68.004202419704	1
3	3455	68.006374354937	1
3	3464	68.146118390149	1
3	3478	68.523502165948	1
3	3498	69.151642665778	1
3	3501	69.207365141514	1
3	3506	69.288020754949	1
3	3518	69.515924646161	1
3	3524	69.647271557351	1
3	3532	69.873378695398	1
3	3544	70.149340978427	1
3	3559	70.583349768606	1
3	3574	70.973509508534	1
3	3577	71.006854041402	1
3	3582	71.113898215614	1
3	3611	71.700239955955	1
3	3633	72.077917624745	1
3	3635	72.147473049619	1
3	3641	72.265075926599	1
3	3658	72.531892632521	1
3	3674	72.783470812055	1
3	3681	72.912547643047	1
3	3683	72.914244493973	1
3	3686	72.950277385163	1
3	3688	72.955382268682	1
3	3709	73.306799798021	1
3	3735	73.870989259844	1
3	3746	74.026163673755	1
3	3748	74.047711442085	1
3	3755	74.135155985845	1
3	3767	74.352078803034	1
3	3788	74.721107920575	1
3	3795	74.787715996194	1
3	3797	74.794180323997	1
3	3799	74.839019732303	1
3	3801	74.853047417601	1
3	3808	74.951361255186	1
3	3820	75.149230993241	1
3	3846	75.669703253374	1
3	3857	75.871243887264	1
3	3869	76.040165480815	1
3	3886	76.333872082221	1
3	3911	76.830968523428	1
3	3919	76.947428776199	1
3	3935	77.189738555813	1
3	3951	77.580784925414	1
3	3959	77.719901536445	1
3	3965	77.816045732294	1
3	3974	77.957124840855	1
3	3998	78.626356794177	1
3	4005	78.675746930992	1
3	4019	78.978847093947	1
3	4022	78.97978197972	1
3	4029	79.090798358442	1
3	4035	79.198999059863	1
3	4043	79.283958662665	1
3	4049	79.44969528609	1
3	4061	79.604645973064	1
3	4077	80.023049014606	1
3	4085	80.135899183632	1
3	4096	80.362282232758	1
3	4109	80.667515871252	1
3	4125	81.03696993997	1
3	4136	81.257089091058	1
3	4158	81.778263501211	1
3	4169	82.014196868138	1
3	4191	82.580633629165	1
3	4194	82.664903720693	1
3	4211	83.003488446037	1
3	4222	83.174988592144	1
3	4225	83.203161862266	1
3	4232	83.311730862941	1
3	4238	83.396853208208	1
3	4240	83.411066323334	1
3	4243	83.457832033589	1
3	4250	83.478360004392	1
3	4271	83.882415805737	1
3	4274	83.933729028447	1
3	4288	84.248090236364	1
3	4304	84.642786332968	1
3	4311	84.728635964661	1
3	4317	84.794575807089	1
3	4327	84.962970468453	1
3	4332	84.989726711916	1
3	4347	85.316812814517	1
3	4350	85.332245361404	1
3	4367	85.690390853396	1
3	4370	85.769250273953	1
3	4376	85.815332673931	1
3	4391	86.098275259696	1
3	4402	86.360646411135	1
3	4410	86.465901837112	1
3	4426	86.791233062371	1
3	4440	87.073760962699	1
3	4443	87.082578308983	1
3	4445	87.145569165232	1
3	4447	87.168244880166	1
3	4468	87.570497174682	1
3	4479	87.684712696832	1
3	4503	88.414639569424	1
3	4506	88.464557922613	1
3	4521	88.746685995222	1
3	4538	89.171778168069	1
3	4560	89.760874770379	1
3	4572	90.01524484665	1
3	4575	90.055737810242	1
3	4590	90.305397503194	1
3	4620	91.178704641119	1
3	4631	91.472517834891	1
3	4637	91.480769708533	1
3	4640	91.561088339797	1
3	4646	91.66166447979	1
3	4653	91.713576784119	1
3	4665	91.896109438719	1
3	4676	92.092993356585	1
3	4679	92.125611637513	1
3	4686	92.232662368501	1
3	4688	92.271001719533	1
3	4713	92.823232033618	1
3	4716	92.855424609075	1
3	4727	93.061121979142	1
3	4731	93.063787063973	1
3	4738	93.16163262139	1
3	4740	93.161941006093	1
3	4759	93.548310440149	1
3	4762	93.556739413357	1
3	4768	93.652602408398	1
3	4776	93.763501925632	1
3	4780	93.80278030007	1
3	4805	94.469844806961	1
3	4821	94.774184643728	1
3	4824	94.814531110753	1
3	4832	94.942341936171	1
3	4846	95.215670293401	1
3	4852	95.275750929877	1
3	4856	95.358752005628	1
3	4870	95.594542521631	1
3	4881	95.805132030947	1
3	4908	96.592447203078	1
3	4919	96.797398728676	1
3	4922	96.853938587772	1
3	4929	96.904427988422	1
3	4943	97.216789861912	1
3	4957	97.494251447363	1
3	4970	97.78163028789	1
3	4979	97.902686234103	1
3	4982	97.928261952306	1
3	4984	97.966892679499	1
3	5003	98.33204190205	1
3	5008	98.39091993485	1
3	5016	98.514802240105	1
3	5028	98.773457841182	1
3	5033	98.800342802212	1
3	5040	98.89952175211	1
3	5046	99.053244000393	1
3	5054	99.150986213271	1
3	5059	99.221327319178	1
3	5071	99.486695047691	1
3	5074	99.52534506441	1
3	5096	100.251854841056	1
3	5100	100.268365617133	1
3	5106	100.323869066557	1
3	5109	100.368222739873	1
3	5114	100.414513020897	1
3	5120	100.526792511291	1
3	5126	100.637264226043	1
3	5134	100.842603552606	1
3	5146	101.095726970532	1
3	5149	101.114013928442	1
3	5164	101.495680145899	1
3	5172	101.747246718349	1
3	5178	101.833626053314	1
3	5181	101.855086268724	1
3	5187	101.945375925298	1
3	5192	101.983995586867	1
3	5195	102.065978476496	1
3	5207	102.315857300222	1
3	5213	102.420092579224	1
3	5227	102.85311630657	1
3	5230	102.865556845442	1
3	5259	103.682099741176	1
3	5262	103.709686786807	1
3	5271	103.921319262199	1
3	5276	104.067499469178	1
3	5285	104.197416018077	1
3	5299	104.627426056449	1
3	5302	104.645802531365	1
3	5308	104.681469857554	1
3	5314	104.845189623405	1
3	5326	105.105626550413	1
3	5329	105.145597478864	1
3	5334	105.194753884991	1
3	5340	105.339228739674	1
3	5356	105.699549315823	1
3	5362	105.887323136676	1
3	5366	105.908545442282	1
3	5383	106.26675237886	1
3	5390	106.357729164766	1
3	5397	106.435967827362	1
3	5409	106.613847501247	1
3	5454	107.513327728903	1
3	5461	107.640565820141	1
3	5512	108.698249627425	1
3	5518	108.789355112011	1
3	5539	109.139268535051	1
3	5575	109.844265550689	1
3	5587	110.081199313537	1
3	5599	110.233221267557	1
3	5611	110.497824942255	1
3	5622	110.600923889704	1
3	5643	111.017242764941	1
3	5645	111.025666905579	1
3	5674	111.6309470685	1
3	5678	111.696622094014	1
3	5695	112.079086316832	1
3	5706	112.298741245476	1
3	5718	112.503593642711	1
3	5721	112.507334326111	1
3	5723	112.522602224094	1
3	5725	112.569251511134	1
3	5737	112.764557727134	1
3	5739	112.769153443361	1
3	5746	112.85630137045	1
3	5748	112.867296155945	1
3	5753	112.90330784932	1
3	5762	113.016481493306	1
3	5783	113.463777650518	1
3	5790	113.531559442321	1
3	5805	113.880028184379	1
3	5810	113.933967073732	1
3	5820	114.083546224185	1
3	5832	114.343223652954	1
3	5841	114.467742481254	1
3	5846	114.513429618913	1
3	5853	114.647824714678	1
3	5858	114.692427471875	1
3	5862	114.75284318458	1
3	5876	114.987635422398	1
3	5884	115.090681794204	1
3	5889	115.148103491732	1
3	5896	115.262881386515	1
3	5901	115.293743745337	1
3	5903	115.296777871079	1
3	5907	115.324924575133	1
3	5928	115.771734012651	1
3	5950	116.350581816255	1
3	5953	116.356498336771	1
3	5958	116.404719844862	1
3	5963	116.49804742769	1
3	5976	116.725572993825	1
3	5978	116.745730152393	1
3	5988	116.874180249982	1
3	5992	116.91805147733	1
3	6002	117.08892432405	1
3	6024	117.659842451296	1
3	6032	117.767520595593	1
3	6038	117.860331642024	1
3	6042	117.888912514226	1
3	6056	118.150040399216	1
3	6062	118.230332099413	1
3	6066	118.257303721372	1
3	6069	118.288498965287	1
3	6073	118.346377783628	1
3	6094	118.708864358747	1
3	6110	119.134986571331	1
3	6119	119.241538332787	1
3	6137	119.708758759514	1
3	6140	119.714805605868	1
3	6143	119.782638650241	1
3	6162	120.162636577708	1
3	6187	120.845572947005	1
3	6190	120.897987667663	1
3	6204	121.118571578668	1
3	6221	121.591299054672	1
3	6231	121.73113483188	1
3	6237	121.806040897592	1
3	6244	121.901004710079	1
3	6251	122.026977854147	1
3	6257	122.109285040866	1
3	6280	122.751595558911	1
3	6302	123.358950998945	1
3	6319	123.763818176558	1
3	6333	124.00021727801	1
3	6336	124.049598752064	1
3	6347	124.202356332045	1
3	6358	124.44636373464	1
3	6361	124.455256478976	1
3	6367	124.574247786268	1
3	6373	124.631132165087	1
3	6377	124.650097180264	1
3	6402	125.223637909585	1
3	6409	125.367335337458	1
3	6420	125.530109320476	1
3	6426	125.609273204697	1
3	6430	125.697756572249	1
3	6448	126.098690697007	1
3	6453	126.100589759232	1
3	6464	126.374311152861	1
3	6471	126.432796018242	1
3	6477	126.523705882026	1
3	6481	126.582372601859	1
3	6496	126.858805212478	1
3	6499	126.896236384029	1
3	6509	127.037593066087	1
3	6515	127.122210956763	1
3	6522	127.222189485796	1
3	6526	127.267481558322	1
3	6531	127.325885675393	1
3	6533	127.338879058935	1
3	6552	127.671840859671	1
3	6555	127.692460229647	1
3	6569	127.986251292917	1
3	6579	128.123575993158	1
3	6593	128.441224101725	1
3	6596	128.455665263568	1
3	6599	128.494454316278	1
3	6623	129.041600972323	1
3	6634	129.226940328542	1
3	6637	129.273099287146	1
3	6643	129.355829582947	1
3	6651	129.480633055509	1
3	6671	129.988406312111	1
3	6679	130.095521614793	1
3	6684	130.179405822587	1
3	6691	130.248281061591	1
3	6703	130.457548765732	1
3	6708	130.535721762529	1
3	6712	130.580941512014	1
3	6718	130.628490838735	1
3	6737	131.081943634967	1
3	6742	131.147718985525	1
3	6757	131.485162410488	1
3	6763	131.510072217194	1
3	6778	131.862770961128	1
3	6789	132.096525477633	1
3	6801	132.307855965467	1
3	6812	132.514716703716	1
3	6826	132.81245958085	1
3	6829	132.887116114803	1
3	6843	133.143064555462	1
3	6859	133.567616137498	1
3	6876	133.95552539733	1
3	6882	134.053199890281	1
3	6911	134.803730413631	1
3	6918	134.992611518519	1
3	6929	135.128818967608	1
3	6937	135.276937734893	1
3	6942	135.353637065336	1
3	6950	135.432262414307	1
3	6961	135.643082288898	1
3	6980	136.174336403482	1
3	6983	136.195400715859	1
3	7000	136.572440855652	1
3	7003	136.572817742066	1
3	7019	136.940742675973	1
3	7022	136.951400501778	1
3	7042	137.568482169542	1
3	7050	137.781213097661	1
3	7053	137.781710199404	1
3	7062	137.97190290512	1
3	7071	138.107404565357	1
3	7077	138.261998128273	1
3	7097	138.817842228007	1
3	7111	139.282899594793	1
3	7117	139.311772251636	1
3	7120	139.379108458636	1
3	7126	139.435314411715	1
3	7135	139.634851121972	1
3	7140	139.775515646144	1
3	7149	139.905985928689	1
3	7157	140.13288865197	1
3	7166	140.357442667633	1
3	7172	140.438363749395	1
3	7178	140.569427398807	1
3	7184	140.642589183463	1
3	7187	140.677525805556	1
3	7198	140.976567301108	1
3	7201	140.98292777773	1
3	7204	140.989608926483	1
3	7224	141.569237843317	1
3	7236	141.87740486983	1
3	7247	142.175667255438	1
3	7253	142.28757951119	1
3	7273	142.831411314041	1
3	7282	143.029727058546	1
3	7285	143.082436200256	1
3	7296	143.326933509995	1
3	7299	143.348031853175	1
3	7302	143.368763939733	1
3	7314	143.623511881835	1
3	7328	144.09187306225	1
3	7339	144.340153093905	1
3	7351	144.685698836809	1
3	7357	144.741627108406	1
3	7363	144.835749929982	1
3	7372	145.040955910148	1
3	7375	145.084287418457	1
3	7380	145.128416725472	1
3	7383	145.141389601008	1
3	7386	145.186493751597	1
3	7392	145.260303684094	1
3	7413	145.735462693887	1
3	7422	145.985251119541	1
3	7433	146.158690992272	1
3	7450	146.494214766124	1
3	7457	146.595318075553	1
3	7464	146.674397755217	1
3	7480	146.977913146646	1
3	7482	147.027679762602	1
3	7489	147.044765061444	1
3	7492	147.124084227689	1
3	7503	147.25853892856	1
3	7534	147.925434626337	1
3	7550	148.185461983549	1
3	7552	148.205667235318	1
3	7560	148.328789791018	1
3	7566	148.364181012954	1
3	7587	148.760247216115	1
3	7599	148.99723760294	1
3	7606	149.05069882039	1
3	7608	149.080808405645	1
3	7614	149.152006660777	1
3	7617	149.214026526675	1
3	7628	149.367059590475	1
3	7645	149.692148527881	1
3	7661	150.000262330532	1
3	7668	150.071772191704	1
3	7680	150.275823190142	1
3	7692	150.457595144064	1
3	7708	150.749713210198	1
3	7715	150.919819561062	1
3	7736	151.279393237838	1
3	7743	151.341090902916	1
3	7754	151.561447293416	1
3	7757	151.618646469231	1
3	7764	151.646697710614	1
3	7766	151.715104381757	1
3	7772	151.763249078207	1
3	7793	152.180647187107	1
3	7801	152.277844179568	1
3	7803	152.281631441949	1
3	7824	152.649480407067	1
3	7826	152.668702519163	1
3	7828	152.675990710532	1
3	7834	152.759460789079	1
3	7842	152.893603542255	1
3	7848	152.943373176363	1
3	7860	153.139431924867	1
3	7867	153.304931089845	1
3	7873	153.367998658138	1
3	7881	153.523070245799	1
3	7892	153.645626877466	1
3	7899	153.782409664721	1
3	7910	153.943863856177	1
3	7913	154.015414122589	1
3	7929	154.288614574148	1
3	7936	154.431876744061	1
3	7962	154.899290652968	1
3	7979	155.207860186353	1
3	7986	155.254297916094	1
3	8002	155.589099158643	1
3	8004	155.618151428292	1
3	8015	155.770368503777	1
3	8023	155.843193640643	1
3	8039	156.171518942398	1
3	8046	156.304070652873	1
3	8048	156.311045984017	1
3	8110	157.768824421526	1
3	8113	157.802287237448	1
3	8128	158.049108732861	1
3	8139	158.324920872782	1
3	8149	158.479059096948	1
3	8155	158.576243395645	1
3	8159	158.616121068601	1
3	8166	158.692636428627	1
3	8168	158.711201929805	1
3	8180	158.880932467161	1
3	8184	158.944534822398	1
3	8191	159.037711812973	1
3	8198	159.14060975013	1
3	8217	159.621156947608	1
3	8220	159.635048089161	1
3	8228	159.732916768379	1
3	8239	159.928528480044	1
3	8255	160.290410383185	1
3	8258	160.300823759435	1
3	8268	160.48496571757	1
3	8274	160.5574107243	1
3	8295	161.043537096991	1
3	8298	161.088576990268	1
3	8305	161.220927457191	1
3	8333	162.004974493428	1
3	8358	162.641454665211	1
3	8361	162.705637193757	1
3	8373	162.877576585011	1
3	8378	162.961179260967	1
3	8380	162.966806549615	1
3	8392	163.171496935064	1
3	8407	163.440044968941	1
3	8418	163.660223807735	1
3	8434	164.055457592942	1
3	8447	164.392581709354	1
3	8450	164.413331852186	1
3	8457	164.50150155143	1
3	8483	165.163278256496	1
3	8531	166.713518735562	1
3	8541	166.879278229562	1
3	8549	167.00311180439	1
3	8563	167.273067193706	1
3	8573	167.462066436611	1
3	8577	167.512787328058	1
3	8602	168.232744047337	1
3	8624	168.79940721002	1
3	8630	168.845174713735	1
3	8642	169.051362709567	1
3	8645	169.08729153876	1
3	8654	169.244045414805	1
3	8658	169.279732686217	1
3	8682	169.930582468087	1
3	8711	170.789985346624	1
3	8722	170.952808331713	1
3	8738	171.354133240183	1
3	8747	171.505848975057	1
3	8757	171.697450387389	1
3	8760	171.706610376848	1
3	8783	172.257071078684	1
3	8791	172.415174122892	1
3	8797	172.44835373392	1
3	8809	172.721151445969	1
3	8814	172.816025431633	1
3	8821	172.907926254817	1
3	8833	173.055872594691	1
3	8844	173.283338655761	1
3	8847	173.307584383894	1
3	8856	173.473656451439	1
3	8874	173.864207426578	1
3	8877	173.910839895661	1
3	8881	173.950455160372	1
3	8890	174.108745655532	1
3	8897	174.210958966092	1
3	8906	174.340207389088	1
3	8911	174.427720649399	1
3	8918	174.510133905617	1
3	8922	174.55282259065	1
3	8936	174.770140682932	1
3	8939	174.796171057775	1
3	8941	174.808791771027	1
3	8960	175.231572866356	1
3	8967	175.324861715494	1
3	8984	175.656938146378	1
3	8991	175.770809028844	1
3	8994	175.826363596375	1
3	9023	176.555279628444	1
3	9029	176.704060785278	1
3	9040	176.943658504864	1
3	9043	176.956352822655	1
3	9052	177.152939710716	1
3	9064	177.476866656755	1
3	9067	177.510774066682	1
3	9072	177.544833308532	1
3	9078	177.659051937992	1
3	9095	178.222275838935	1
3	9101	178.315075410377	1
3	9110	178.465001360339	1
3	9127	179.02901308432	1
3	9135	179.213547692593	1
3	9142	179.334142318528	1
3	9153	179.54733280434	1
3	9165	179.933675072657	1
3	9173	180.056010844366	1
3	9182	180.268049907277	1
3	9191	180.502626974672	1
3	9205	180.925494790238	1
3	9211	181.033109407986	1
3	9214	181.033777611556	1
3	9228	181.379874629042	1
3	9245	181.897364149931	1
3	9265	182.514007120656	1
3	9285	183.118396728499	1
3	9291	183.207662374478	1
3	9297	183.241330844156	1
3	9300	183.248889452572	1
3	9303	183.262483276598	1
3	9312	183.470163951096	1
3	9317	183.54649902582	1
3	9323	183.640391032252	1
3	9329	183.816554249629	1
3	9335	183.837756725218	1
3	9340	183.986279405386	1
3	9347	184.059194434713	1
3	9352	184.173423754494	1
3	9358	184.241749276332	1
3	9373	184.729377906687	1
3	9387	185.059395216011	1
3	9393	185.228178372798	1
3	9399	185.283985424775	1
3	9420	185.828020353006	1
3	9423	185.838500905147	1
3	9428	186.010178090558	1
3	9432	186.105370567309	1
3	9440	186.146328224499	1
3	9465	186.676329327515	1
3	9506	187.480682545149	1
3	9508	187.485529750995	1
3	9573	188.786423246885	1
3	9575	188.789034356694	1
3	9582	188.907321539092	1
3	9589	188.93402488179	1
3	9601	189.221483946105	1
3	9607	189.290874881236	1
3	9619	189.493304971086	1
3	9636	189.74551835015	1
3	9638	189.786491664033	1
3	9644	189.901929284717	1
3	9656	190.075049741009	1
3	9658	190.103709617296	1
3	9669	190.316112813481	1
3	9671	190.321897380484	1
3	9683	190.502049948631	1
3	9695	190.64453001605	1
3	9702	190.800478822865	1
3	9708	190.858224375062	1
3	9720	191.037462725026	1
3	9737	191.391418297428	1
3	9753	191.638298634946	1
3	9755	191.714638757333	1
3	9772	192.009426172948	1
3	9807	192.668065398178	1
3	9809	192.686718895186	1
3	9811	192.691790376124	1
3	9838	193.181302128876	1
3	9844	193.241933352898	1
3	9852	193.36136443694	1
3	9863	193.560668983657	1
3	9875	193.799223547526	1
3	9881	193.915545937696	1
3	9889	194.013632613834	1
3	9900	194.138072480532	1
3	9902	194.148553821056	1
3	9909	194.288798541316	1
3	9920	194.506713940691	1
3	9940	194.833376719767	1
3	9943	194.924410936842	1
3	9950	194.954403265803	1
3	9956	195.11534417499	1
3	9964	195.196269191015	1
3	9970	195.258279224205	1
3	9982	195.504123733913	1
3	9988	195.549723820336	1
3	9994	195.633229722432	1
3	9996	195.703483341086	1
3	10019	196.21643631307	1
3	10035	196.5853008768	1
3	10054	197.098707231231	1
3	10074	197.614151600292	1
3	10087	197.832258050524	1
3	10112	198.600977545639	1
3	10125	198.909148110478	1
3	10133	199.016148192726	1
3	10141	199.116846043677	1
3	10155	199.413571538138	1
3	10168	199.63472138328	1
3	10171	199.671518720977	1
3	10173	199.677397269544	1
3	10190	199.950112850778	1
4	7	0.114538397925	1
4	10	0.15547197478	1
4	12	0.160725622149	2
4	34	0.69702927424	2
4	42	0.85658085902	1
4	62	1.446849733555	2
4	69	1.56114979718	1
4	73	1.693770058208	1
4	81	1.802842361652	1
4	87	1.880132695456	2
4	93	1.960328180121	3
4	96	1.993876258359	4
4	99	2.039670517305	5
4	110	2.27970830462	6
4	123	2.472841777648	7
4	126	2.498397212233	7
4	128	2.569633561714	8
4	136	2.702419565487	7
4	138	2.764494358611	8
4	149	2.964830169755	7
4	161	3.158944621383	7
4	175	3.499943640207	8
4	182	3.650583421909	9
4	196	3.880370524256	10
4	200	3.90927857908	10
4	205	4.047333308752	10
4	214	4.191469101016	9
4	221	4.368232347101	9
4	228	4.409008370493	9
4	240	4.663426033318	8
4	256	4.971161491871	7
4	262	5.03097699788	8
4	277	5.415772884114	9
4	282	5.573795849995	10
4	291	5.710133206656	11
4	297	5.814749231701	12
4	312	6.189640309045	13
4	315	6.228596388112	13
4	317	6.245195653213	14
4	350	6.944071509278	8
4	356	7.084810467119	8
4	363	7.155295367916	8
4	365	7.168798411447	9
4	372	7.236697040012	9
4	379	7.348463075238	9
4	381	7.373166461457	10
4	387	7.393469140195	10
4	389	7.433581000757	11
4	391	7.460781597482	12
4	403	7.597139885006	11
4	410	7.778777270334	12
4	419	7.945611213717	13
4	424	7.996850996407	14
4	427	8.047014378372	15
4	430	8.06963595367	16
4	442	8.36140137449	17
4	448	8.411172176191	18
4	454	8.58339450889	19
4	459	8.669497648598	20
4	466	8.706239748247	21
4	471	8.83238222931	22
4	477	8.923988187905	23
4	480	8.969053180419	24
4	489	9.095528925266	25
4	501	9.30008526162	26
4	512	9.512502484105	24
4	520	9.644471981036	24
4	536	9.959566005198	22
4	547	10.100301174566	21
4	559	10.317872321556	20
4	566	10.415715368928	20
4	578	10.605596832298	19
4	594	10.921220975991	17
4	634	11.860064909484	13
4	643	12.033567014881	14
4	646	12.059016632358	15
4	649	12.094435346442	16
4	654	12.126601718384	17
4	663	12.367898471559	18
4	677	12.750387208039	19
4	700	13.418319719661	20
4	706	13.560796272331	21
4	712	13.699429054061	22
4	717	13.748422527581	23
4	731	14.189006788557	24
4	776	15.189132650318	14
4	780	15.272725324637	15