version 3
run FeedbackVersion-18-20240511-20:48:08-11935
attr configname FeedbackVersion
attr datetime 20240511-20:48:08
attr datetimef 20240511-204808
attr experiment FeedbackVersion
attr inifile omnetpp.ini
attr iterationvars $genInterval=1
attr iterationvarsd genInterval=1
attr iterationvarsf genInterval=1-
attr measurement $genInterval=1
attr network NetworkFV
attr processid 11935
attr repetition 0
attr replication #0
attr resultdir results
attr runnumber 18
attr seedset 18
itervar genInterval 1
config network NetworkFV
config sim-time-limit 200s
config NetworkFV.nodeTx.gen.generationInterval exponential(1)
config NetworkFV.nodeTx.gen.packetByteSize 12500
config NetworkFV.queueOne.bufferSize 200
config NetworkFV.nodeRx.queue.bufferSize 200
config NetworkFV.nodeTx.queue.bufferSize 2000000
config NetworkFV.queueZero.bufferSize 200

vector 0 NetworkFV.nodeRx.queue PacketsLost ETV
vector 1 NetworkFV.nodeRx.queue PacketsAsked ETV
vector 2 NetworkFV.queueOne bufferSize ETV
vector 3 NetworkFV.nodeTx.gen packetGen ETV
vector 4 NetworkFV.nodeTx.queue BufferSize ETV
vector 5 NetworkFV.nodeTx.queue PacketsSent ETV
vector 6 NetworkFV.queueZero bufferSize ETV
vector 7 NetworkFV.nodeRx.queue BufferSize ETV
vector 8 NetworkFV.nodeRx.sink Delay ETV
vector 9 NetworkFV.nodeRx.sink packetUsed ETV
0	1	0	1
0	6	0.2	1
0	7	0.4	1
0	8	0.6	1
0	9	0.8	1
0	10	1	1
0	19	1.2	1
0	56	2.0004	1
0	69	2.6008	1
0	80	3.2012	1
0	81	3.5014	1
0	82	3.8016	1
0	83	4.1018	1
0	84	4.402	1
0	91	4.7022	1
0	114	5.0024	1
0	128	5.29081060946	1
0	130	5.3026	1
0	133	5.6028	1
0	134	5.903	1
0	135	6.2032	1
0	136	6.5034	1
0	141	6.8036	1
0	142	7.1038	1
0	146	7.404	1
0	157	7.7042	1
0	160	8.0044	1
0	161	8.3046	1
0	162	8.6048	1
0	163	8.905	1
0	164	9.2052	1
0	172	9.5054	1
0	180	9.8056	1
0	185	10.1058	1
0	190	10.406	1
0	191	10.7062	1
0	197	11.0064	1
0	211	11.6068	1
0	212	11.907	1
0	219	12.2072	1
0	269	13.7082	1
0	270	14.0084	1
0	271	14.3086	1
0	272	14.6088	1
0	273	14.909	1
0	274	15.2092	1
0	279	15.5094	1
0	280	15.8096	1
0	281	16.1098	1
0	282	16.41	1
0	283	16.7102	1
0	287	17.0104	1
1	1	0	2
1	19	1.2	1
1	27	1.35109196372	0
1	33	1.4	1
1	41	1.55109196372	2
1	71	2.700996351696	3
1	91	4.7022	1
1	100	4.809672910977	1
1	116	5.090112975802	2
1	136	6.5034	1
1	151	7.680865215926	1
1	164	9.2052	0
1	172	9.5054	0
1	180	9.8056	0
1	185	10.1058	1
1	202	11.207945341596	2
1	229	12.516437513911	3
1	260	13.273117699836	4
1	274	15.2092	2
1	287	17.0104	0
2	2	0	1
2	20	1.2	1
2	29	1.35109196372	1
2	34	1.4	1
2	43	1.55109196372	1
2	73	2.700996351696	1
2	92	4.7022	1
2	102	4.809672910977	1
2	118	5.090112975802	1
2	137	6.5034	1
2	153	7.680865215926	1
2	165	9.2052	1
2	173	9.5054	1
2	181	9.8056	1
2	186	10.1058	1
2	204	11.207945341596	1
2	231	12.516437513911	1
2	262	13.273117699836	1
2	275	15.2092	1
2	288	17.0104	1
3	11	1.05089196372	1
3	14	1.129946824883	1
3	50	1.834060672312	1
3	63	2.400796351696	1
3	85	4.509472910977	1
3	96	4.789912975802	1
3	111	4.99061060946	1
3	143	7.380665215926	1
3	169	9.292784243635	1
3	177	9.520905665386	1
3	192	10.907745341596	1
3	195	10.919318785571	1
3	213	12.016237513911	1
3	235	12.572917699836	1
3	284	16.987091475029	1
3	302	17.829066270616	1
3	306	18.126083006804	1
3	316	20.020738919878	1
3	319	20.049453176764	1
3	334	23.913280791288	1
3	341	24.923110846198	1
3	345	25.31370505773	1
3	354	27.193066271011	1
3	360	28.002097163697	1
3	368	29.334565003912	1
3	374	30.236762260166	1
3	377	30.25778889083	1
3	381	30.598327007211	1
3	384	30.716663713572	1
3	391	31.726023680856	1
3	395	32.079452102603	1
3	398	32.30704555372	1
3	405	33.468502409031	1
3	409	33.804477515397	1
3	419	35.782273048443	1
3	425	36.755509127746	1
3	429	36.976947082072	1
3	434	37.475157633821	1
3	440	38.545733715142	1
3	446	39.355534662889	1
3	453	40.558360206701	1
3	464	42.919951818346	1
3	468	43.354422243728	1
3	474	44.090454208667	1
3	482	45.6509141026	1
3	494	48.443672719274	1
3	503	50.125939078819	1
3	510	51.462129301926	1
3	514	51.682054641279	1
3	518	51.989555710124	1
3	531	54.974452847391	1
3	536	55.527066809948	1
3	541	56.174476836262	1
3	556	59.711096794168	1
3	562	60.809510150004	1
3	566	61.020348364593	1
3	570	61.257732887128	1
3	575	62.031947645686	1
3	584	63.679743538941	1
3	589	64.347747924333	1
3	593	64.732948923277	1
3	601	66.221730999114	1
3	606	66.569780350906	1
3	613	67.780239262378	1
3	617	68.139658213441	1
3	626	70.011216687684	1
3	635	71.770834688527	1
3	641	72.561489408463	1
3	646	73.36564344243	1
3	651	73.813811850777	1
3	654	74.02660589396	1
3	663	75.63104391856	1
3	670	76.883705468958	1
3	683	79.783913458822	1
3	689	80.805204640749	1
3	695	81.627886013298	1
3	700	82.389748600215	1
3	709	84.020610131802	1
3	715	84.870476415719	1
3	722	86.249443825601	1
3	725	86.261853041501	1
3	729	86.43791318381	1
3	736	87.626137227803	1
3	745	89.646092670997	1
3	751	90.41107793087	1
3	756	91.046337717632	1
3	759	91.12877924144	1
3	773	94.340243115657	1
3	776	94.353974463022	1
3	781	95.046512812446	1
3	786	95.372039422417	1
3	793	96.770263553741	1
3	816	102.716862517922	1
3	822	103.526670252603	1
3	826	103.782337826953	1
3	829	103.845739109292	1
3	832	103.956687827273	1
3	836	104.077469197049	1
3	839	104.093904295964	1
3	844	104.757477180287	1
3	848	105.175461506587	1
3	853	105.809894776097	1
3	862	107.46118677629	1
3	866	107.707230436757	1
3	869	107.952261311635	1
3	873	107.98853150051	1
3	885	110.715840504168	1
3	889	111.168743411128	1
3	907	115.633967045261	1
3	910	115.691004413694	1
3	913	115.702082237473	1
3	921	117.101955663197	1
3	929	118.638620712614	1
3	933	119.041894806744	1
3	940	120.198232446773	1
3	948	121.671653977334	1
3	954	122.396589054722	1
3	959	123.051909689827	1
3	963	123.365406339528	1
3	967	123.765920986073	1
3	974	124.858893608768	1
3	980	125.843615126018	1
3	988	127.344756876037	1
3	993	127.902615222211	1
3	998	128.548241053261	1
3	1002	128.837336904341	1
3	1020	133.242529146249	1
3	1023	133.388248659635	1
3	1028	134.073914664863	1
3	1036	135.505951099574	1
3	1043	136.619236775831	1
3	1054	139.115989602433	1
3	1059	139.678563503964	1
3	1063	139.896620003306	1
3	1067	140.199047238658	1
3	1074	141.377184886793	1
3	1086	144.263101156488	1
3	1092	144.930806410164	1
3	1098	146.092778086181	1
3	1102	146.108247832852	1
3	1108	147.186044470814	1
3	1113	147.80592894933	1
3	1116	147.841938462766	1
3	1122	148.561014463187	1
3	1133	150.927591706651	1
3	1136	151.173857125252	1
3	1141	151.716423397053	1
3	1148	152.804756679212	1
3	1153	153.450912444931	1
3	1159	154.346968127436	1
3	1162	154.492726785898	1
3	1168	155.190032337814	1
3	1172	155.639830064625	1
3	1181	157.366412326464	1
3	1185	157.761180377272	1
3	1189	157.997819444363	1
3	1193	158.158009136515	1
3	1197	158.436411887727	1
3	1205	160.025487031257	1
3	1220	163.536283405653	1
3	1225	164.277029902292	1
3	1232	165.349501967665	1
3	1242	167.595463976644	1
3	1249	168.770903967482	1
3	1257	170.352803179675	1
3	1275	174.79934584492	1
3	1281	175.791851357519	1
3	1289	177.155918947328	1
3	1292	177.225405142621	1
3	1298	178.065745602036	1
3	1306	179.613477203704	1
3	1311	180.27620130825	1
3	1316	180.752506389268	1
3	1320	181.099009454215	1
3	1325	181.735062724347	1
3	1330	182.411467892481	1
3	1334	182.493872449384	1
3	1340	183.407187954143	1
3	1343	183.573734339626	1
3	1355	186.042575651492	1
3	1359	186.516080115342	1
3	1363	186.703358330625	1
3	1367	187.136071454889	1
3	1372	187.665925582513	1
3	1375	187.714596103488	1
3	1387	190.342115062562	1
3	1391	190.61303859618	1
3	1395	190.977083673129	1
3	1399	191.195793251101	1
3	1404	191.823806392366	1
3	1408	192.312300956192	1
3	1414	193.005290466026	1
3	1423	194.799798475917	1
3	1431	196.323470218992	1
3	1439	197.814886398965	1
3	1442	197.82522596454	1
3	1450	199.452493043558	1
4	12	1.05089196372	1
4	15	1.129946824883	1
4	51	1.834060672312	1
4	64	2.400796351696	1
4	86	4.509472910977	1
4	97	4.789912975802	1
4	112	4.99061060946	1
4	144	7.380665215926	1
4	170	9.292784243635	1
4	178	9.520905665386	2
4	193	10.907745341596	3
4	196	10.919318785571	3
4	214	12.016237513911	4
4	236	12.572917699836	3
4	285	16.987091475029	1
4	303	17.829066270616	1
4	307	18.126083006804	2
4	317	20.020738919878	3
4	320	20.049453176764	4
4	335	23.913280791288	5
4	342	24.923110846198	6
4	346	25.31370505773	7
4	355	27.193066271011	8
4	361	28.002097163697	9
4	369	29.334565003912	10
4	375	30.236762260166	11
4	378	30.25778889083	12
4	382	30.598327007211	13
4	385	30.716663713572	14
4	392	31.726023680856	15
4	396	32.079452102603	16
4	399	32.30704555372	17
4	406	33.468502409031	18
4	410	33.804477515397	19
4	420	35.782273048443	20
4	426	36.755509127746	21
4	430	36.976947082072	22
4	435	37.475157633821	23
4	441	38.545733715142	24
4	447	39.355534662889	25
4	454	40.558360206701	26
4	465	42.919951818346	27
4	469	43.354422243728	28
4	475	44.090454208667	29
4	483	45.6509141026	30
4	495	48.443672719274	31
4	504	50.125939078819	32
4	511	51.462129301926	33
4	515	51.682054641279	34
4	519	51.989555710124	35
4	532	54.974452847391	36
4	537	55.527066809948	37
4	542	56.174476836262	38
4	557	59.711096794168	39
4	563	60.809510150004	40
4	567	61.020348364593	41
4	571	61.257732887128	42
4	576	62.031947645686	43
4	585	63.679743538941	44
4	590	64.347747924333	45
4	594	64.732948923277	46
4	602	66.221730999114	47
4	607	66.569780350906	48
4	614	67.780239262378	49
4	618	68.139658213441	50
4	627	70.011216687684	51
4	636	71.770834688527	52
4	642	72.561489408463	53
4	647	73.36564344243	54
4	652	73.813811850777	55
4	655	74.02660589396	56
4	664	75.63104391856	57
4	671	76.883705468958	58
4	684	79.783913458822	59
4	690	80.805204640749	60
4	696	81.627886013298	61
4	701	82.389748600215	62
4	710	84.020610131802	63
4	716	84.870476415719	64
4	723	86.249443825601	65
4	726	86.261853041501	66
4	730	86.43791318381	67
4	737	87.626137227803	68
4	746	89.646092670997	69
4	752	90.41107793087	70
4	757	91.046337717632	71
4	760	91.12877924144	72
4	774	94.340243115657	73
4	777	94.353974463022	74
4	782	95.046512812446	75
4	787	95.372039422417	76
4	794	96.770263553741	77
4	817	102.716862517922	78
4	823	103.526670252603	79
4	827	103.782337826953	80
4	830	103.845739109292	81
4	833	103.956687827273	82
4	837	104.077469197049	83
4	840	104.093904295964	84
4	845	104.757477180287	85
4	849	105.175461506587	86
4	854	105.809894776097	87
4	863	107.46118677629	88
4	867	107.707230436757	89
4	870	107.952261311635	90
4	874	107.98853150051	91
4	886	110.715840504168	92
4	890	111.168743411128	93
4	908	115.633967045261	94
4	911	115.691004413694	95
4	914	115.702082237473	96
4	922	117.101955663197	97
4	930	118.638620712614	98
4	934	119.041894806744	99
4	941	120.198232446773	100
4	949	121.671653977334	101
4	955	122.396589054722	102
4	960	123.051909689827	103
4	964	123.365406339528	104
4	968	123.765920986073	105
4	975	124.858893608768	106
4	981	125.843615126018	107
4	989	127.344756876037	108
4	994	127.902615222211	109
4	999	128.548241053261	110
4	1003	128.837336904341	111
4	1021	133.242529146249	112
4	1024	133.388248659635	113
4	1029	134.073914664863	114
4	1037	135.505951099574	115
4	1044	136.619236775831	116
4	1055	139.115989602433	117
4	1060	139.678563503964	118
4	1064	139.896620003306	119
4	1068	140.199047238658	120
4	1075	141.377184886793	121
4	1087	144.263101156488	122
4	1093	144.930806410164	123
4	1099	146.092778086181	124
4	1103	146.108247832852	125
4	1109	147.186044470814	126
4	1114	147.80592894933	127
4	1117	147.841938462766	128
4	1123	148.561014463187	129
4	1134	150.927591706651	130
4	1137	151.173857125252	131
4	1142	151.716423397053	132
4	1149	152.804756679212	133
4	1154	153.450912444931	134
4	1160	154.346968127436	135
4	1163	154.492726785898	136
4	1169	155.190032337814	137
4	1173	155.639830064625	138
4	1182	157.366412326464	139
4	1186	157.761180377272	140
4	1190	157.997819444363	141
4	1194	158.158009136515	142
4	1198	158.436411887727	143
4	1206	160.025487031257	144
4	1221	163.536283405653	145
4	1226	164.277029902292	146
4	1233	165.349501967665	147
4	1243	167.595463976644	148
4	1250	168.770903967482	149
4	1258	170.352803179675	150
4	1276	174.79934584492	151
4	1282	175.791851357519	152
4	1290	177.155918947328	153
4	1293	177.225405142621	154
4	1299	178.065745602036	155
4	1307	179.613477203704	156
4	1312	180.27620130825	157
4	1317	180.752506389268	158
4	1321	181.099009454215	159
4	1326	181.735062724347	160
4	1331	182.411467892481	161
4	1335	182.493872449384	162
4	1341	183.407187954143	163
4	1344	183.573734339626	164
4	1356	186.042575651492	165
4	1360	186.516080115342	166
4	1364	186.703358330625	167
4	1368	187.136071454889	168
4	1373	187.665925582513	169
4	1376	187.714596103488	170
4	1388	190.342115062562	171
4	1392	190.61303859618	172
4	1396	190.977083673129	173
4	1400	191.195793251101	174
4	1405	191.823806392366	175
4	1409	192.312300956192	176
4	1415	193.005290466026	177
4	1424	194.799798475917	178
4	1432	196.323470218992	179
4	1440	197.814886398965	180
4	1443	197.82522596454	181
4	1451	199.452493043558	182
5	13	1.05089196372	1
5	16	1.15089196372	2
5	52	1.834060672312	3
5	65	2.400796351696	4
5	87	4.509472910977	5
5	98	4.789912975802	6
5	113	4.99061060946	7
5	145	7.380665215926	8
5	194	10.907745341596	9
5	215	12.016237513911	10
5	216	12.116237513911	11
5	237	12.572917699836	12
5	240	12.672917699836	13
5	243	12.772917699836	14
5	286	16.987091475029	15
6	17	1.15099196372	1
6	25	1.25099196372	1
6	54	1.934160672312	1
6	67	2.500896351696	1
6	89	4.609572910977	1
6	107	4.890012975802	1
6	123	5.09071060946	1
6	148	7.480765215926	1
6	199	11.007845341596	1
6	217	12.116337513911	1
6	221	12.216337513911	1
6	241	12.673017699836	1
6	244	12.773017699836	1
6	248	12.873017699836	1
6	293	17.087191475029	1
7	27	1.35109196372	1
7	41	1.55109196372	1
7	58	2.134260672312	1
7	71	2.700996351696	1
7	100	4.809672910977	1
7	116	5.090112975802	1
7	128	5.29081060946	1
7	151	7.680865215926	1
7	202	11.207945341596	1
7	223	12.316437513911	1
7	229	12.516437513911	1
7	249	12.873117699836	1
7	254	13.073117699836	1
7	260	13.273117699836	1
7	296	17.287291475029	1
8	38	1.45109196372	0.4002
8	47	1.65109196372	0.521145138837
8	60	2.234260672312	0.4002
8	77	2.800996351696	0.4002
8	109	4.909672910977	0.4002
8	125	5.190112975802	0.4002
8	131	5.39081060946	0.4002
8	158	7.780865215926	0.4002
8	209	11.307945341596	2.015161097961
8	225	12.416437513911	2.895531848525
8	238	12.616437513911	1.708692172315
8	251	12.973117699836	2.053798914265
8	257	13.173117699836	1.156880185925
8	266	13.373117699836	0.8002
8	299	17.387291475029	0.4002
9	38	1.45109196372	1
9	47	1.65109196372	1
9	60	2.234260672312	1
9	77	2.800996351696	1
9	109	4.909672910977	1
9	125	5.190112975802	1
9	131	5.39081060946	1
9	158	7.780865215926	1
9	209	11.307945341596	1
9	225	12.416437513911	1
9	238	12.616437513911	1
9	251	12.973117699836	1
9	257	13.173117699836	1
9	266	13.373117699836	1
9	299	17.387291475029	1

