version 3
run FeedbackVersion-3-20240511-20:48:08-11935
attr configname FeedbackVersion
attr datetime 20240511-20:48:08
attr datetimef 20240511-204808
attr experiment FeedbackVersion
attr inifile omnetpp.ini
attr iterationvars $genInterval=0.25
attr iterationvarsd genInterval=0.25
attr iterationvarsf genInterval=0.25-
attr measurement $genInterval=0.25
attr network NetworkFV
attr processid 11935
attr repetition 0
attr replication #0
attr resultdir results
attr runnumber 3
attr seedset 3
itervar genInterval 0.25
config network NetworkFV
config sim-time-limit 200s
config NetworkFV.nodeTx.gen.generationInterval exponential(0.25)
config NetworkFV.nodeTx.gen.packetByteSize 12500
config NetworkFV.queueOne.bufferSize 200
config NetworkFV.nodeRx.queue.bufferSize 200
config NetworkFV.nodeTx.queue.bufferSize 2000000
config NetworkFV.queueZero.bufferSize 200

vector 0 NetworkFV.nodeRx.queue PacketsLost ETV
vector 1 NetworkFV.nodeRx.queue PacketsAsked ETV
vector 2 NetworkFV.queueOne bufferSize ETV
vector 3 NetworkFV.nodeTx.gen packetGen ETV
vector 4 NetworkFV.nodeTx.queue BufferSize ETV
vector 5 NetworkFV.nodeTx.queue PacketsSent ETV
vector 6 NetworkFV.queueZero bufferSize ETV
vector 7 NetworkFV.nodeRx.queue BufferSize ETV
vector 8 NetworkFV.nodeRx.sink Delay ETV
vector 9 NetworkFV.nodeRx.sink packetUsed ETV
0	1	0	1
0	6	0.2	1
0	15	0.4	1
0	49	1.2004	1
0	113	2.7014	1
0	136	3.0016	1
0	310	6.604	1
0	311	6.9042	1
0	320	7.2044	1
0	486	10.5066	1
0	1060	22.2144	1
0	1583	32.7214	1
0	1584	33.0216	1
0	1585	33.3218	1
0	1596	33.622	1
0	2020	42.9282	1
0	2183	46.8308	1
0	2194	47.4312	1
0	2201	47.7314	1
0	2230	48.632	1
0	2499	54.636	1
0	2500	54.9362	1
0	2501	55.2364	1
0	2506	55.5366	1
0	2516	55.8368	1
0	2650	58.5386	1
0	2683	59.7394	1
0	2693	60.3398	1
0	2703	60.64	1
0	2779	62.4412	1
0	2790	62.7414	1
0	2856	64.5426	1
0	2857	64.8428	1
0	2858	65.143	1
0	2869	65.4432	1
0	2885	66.0436	1
0	2886	66.3438	1
0	2897	66.644	1
0	3084	70.8468	1
0	3157	72.648	1
0	3171	72.9482	1
0	3369	77.4512	1
0	3373	77.7514	1
0	3406	78.9522	1
0	3407	79.2524	1
0	3408	79.5526	1
0	3423	79.8528	1
0	3495	81.654	1
0	3608	84.0556	1
0	3681	85.8568	1
0	3960	92.4612	1
0	3967	92.7614	1
0	3980	93.3618	1
0	4314	100.5666	1
0	4500	104.4692	1
0	5466	124.2824	1
0	5467	124.5826	1
0	5474	124.8828	1
0	5536	126.3838	1
0	5576	127.5846	1
0	5697	130.2864	1
0	5849	133.5886	1
0	6057	138.3918	1
0	6103	139.5926	1
0	6119	140.193	1
0	6175	141.9942	1
0	6182	142.2944	1
0	6195	142.8948	1
0	6202	143.4952	1
0	6214	143.7954	1
0	6320	146.197	1
0	6475	149.4992	1
0	6476	149.7994	1
0	6483	150.0996	1
0	6511	151.0002	1
0	6518	151.3004	1
0	6773	156.4038	1
0	7007	161.5072	1
0	7040	162.4078	1
0	7087	163.6086	1
0	7094	163.9088	1
0	7186	166.3104	1
0	7502	172.6146	1
0	7526	173.5152	1
0	7541	174.1156	1
0	7755	178.9188	1
0	7756	179.219	1
0	7760	179.5192	1
0	7770	180.1196	1
0	7771	180.4198	1
0	7772	180.72	1
0	7780	181.0202	1
0	7796	181.6206	1
0	7814	182.221	1
0	7866	183.4218	1
0	8257	191.5272	1
0	8390	194.5292	1
1	1	0	2
1	28	0.700270597723	2
1	59	1.484550925737	4
1	104	2.392180863331	6
1	194	4.060981629165	10
1	301	6.191599368028	15
1	467	10.151381822982	22
1	674	14.722266556684	34
1	1041	21.689538134211	51
1	1574	32.285737888396	76
1	2183	46.8308	38
1	2501	55.2364	12
1	2635	58.197056139039	12
1	2770	61.998090513353	19
1	2869	65.4432	9
1	2970	68.215467494847	9
1	3063	70.430841079368	14
1	3226	73.976274445622	21
1	3423	79.8528	10
1	3524	82.248134692313	10
1	3626	84.552224805722	16
1	3806	88.453298673517	24
1	4082	95.571123236882	36
1	4453	103.274662219925	54
1	5017	114.491198034012	81
1	5697	130.2864	41
1	6121	140.392352012796	40
1	6320	146.197	20
1	6535	151.702698471616	20
1	6752	156.091443879989	30
1	7078	163.293142191532	45
1	7541	174.1156	23
1	7772	180.72	7
1	7854	183.07232307442	7
1	7938	185.038133488069	11
1	8049	187.387752736599	17
1	8234	191.091509669578	25
1	8507	196.971555582923	38
2	2	0	1
2	30	0.700270597723	1
2	61	1.484550925737	1
2	106	2.392180863331	1
2	196	4.060981629165	1
2	303	6.191599368028	1
2	469	10.151381822982	1
2	676	14.722266556684	1
2	1043	21.689538134211	1
2	1576	32.285737888396	1
2	2184	46.8308	1
2	2502	55.2364	1
2	2637	58.197056139039	1
2	2772	61.998090513353	1
2	2870	65.4432	1
2	2972	68.215467494847	1
2	3065	70.430841079368	1
2	3228	73.976274445622	1
2	3424	79.8528	1
2	3526	82.248134692313	1
2	3628	84.552224805722	1
2	3808	88.453298673517	1
2	4084	95.571123236882	1
2	4455	103.274662219925	1
2	5019	114.491198034012	1
2	5698	130.2864	1
2	6123	140.392352012796	1
2	6321	146.197	1
2	6537	151.702698471616	1
2	6754	156.091443879989	1
2	7080	163.293142191532	1
2	7542	174.1156	1
2	7773	180.72	1
2	7856	183.07232307442	1
2	7940	185.038133488069	1
2	8051	187.387752736599	1
2	8236	191.091509669578	1
2	8509	196.971555582923	1
3	7	0.200070597723	1
3	10	0.218408207214	1
3	21	0.526285168524	1
3	37	0.984350925737	1
3	40	1.070292277811	1
3	45	1.102628343184	1
3	50	1.281388417523	1
3	65	1.491980863331	1
3	89	2.050588574896	1
3	98	2.194234993599	1
3	114	2.760781629165	1
3	117	2.765513124701	1
3	119	2.799063261954	1
3	121	2.809433069138	1
3	126	2.867492664755	1
3	128	2.938710272538	1
3	130	2.951920001958	1
3	134	2.976475266317	1
3	142	3.121791686831	1
3	158	3.418508060885	1
3	161	3.42609096082	1
3	167	3.465362667007	1
3	173	3.617947383406	1
3	181	3.768852762458	1
3	190	4.030697648249	1
3	200	4.091399368028	1
3	205	4.17300068715	1
3	211	4.282202897155	1
3	225	4.56415260011	1
3	236	4.733784207306	1
3	248	4.957210395792	1
3	271	5.568539933673	1
3	274	5.574608466282	1
3	288	5.93753157867	1
3	297	6.142126475072	1
3	312	7.051181822982	1
3	315	7.126205671318	1
3	323	7.254897618262	1
3	330	7.388976726159	1
3	342	7.5901483842	1
3	348	7.673501395332	1
3	355	7.764952167598	1
3	371	8.060291388003	1
3	383	8.28113837413	1
3	391	8.42629563478	1
3	397	8.506663993214	1
3	399	8.549321853723	1
3	408	8.700884365186	1
3	417	8.897556054329	1
3	431	9.251914860797	1
3	444	9.630804734066	1
3	460	10.056152916073	1
3	463	10.147604735197	1
3	474	10.222066556684	1
3	479	10.284810212417	1
3	506	10.843693987501	1
3	513	10.96643799551	1
3	529	11.28327446358	1
3	565	11.971995666788	1
3	567	11.977203153505	1
3	603	12.909580894458	1
3	609	12.94807778886	1
3	621	13.227055815649	1
3	627	13.325429887343	1
3	644	13.908263756833	1
3	658	14.322041566039	1
3	680	14.789338134211	1
3	688	14.916624458344	1
3	693	15.035325861581	1
3	700	15.173542469944	1
3	706	15.197729952009	1
3	714	15.331218837649	1
3	729	15.596122674052	1
3	747	15.982901064497	1
3	758	16.186922364233	1
3	774	16.499483928007	1
3	782	16.611667687697	1
3	785	16.61751493032	1
3	787	16.681255574868	1
3	794	16.776119859647	1
3	804	16.906557765689	1
3	818	17.11338179742	1
3	825	17.271601980412	1
3	841	17.616339764318	1
3	847	17.694755799905	1
3	859	17.929916810201	1
3	865	18.016171443998	1
3	869	18.073007826087	1
3	878	18.225985537017	1
3	893	18.491048080085	1
3	910	18.983531530622	1
3	923	19.255216985696	1
3	933	19.47584207707	1
3	953	19.987967467776	1
3	958	20.071307490074	1
3	976	20.488111002695	1
3	982	20.569535750162	1
3	987	20.686686793654	1
3	996	20.838255868013	1
3	999	20.857800344016	1
3	1005	20.915282706179	1
3	1016	21.272665116589	1
3	1023	21.328882224322	1
3	1026	21.345355697933	1
3	1034	21.525760394136	1
3	1050	21.985537888396	1
3	1053	22.008355551901	1
3	1066	22.303284360988	1
3	1072	22.468495762419	1
3	1084	22.616098487024	1
3	1091	22.728521795709	1
3	1098	22.841009488796	1
3	1115	23.148491700494	1
3	1126	23.329958172	1
3	1142	23.673298976957	1
3	1154	23.826113448703	1
3	1171	24.119792140239	1
3	1187	24.532829219995	1
3	1200	24.824964883136	1
3	1207	24.920018241308	1
3	1215	25.036959822296	1
3	1234	25.501093679377	1
3	1245	25.776850287333	1
3	1256	25.944839243104	1
3	1263	26.048660786382	1
3	1274	26.242857992977	1
3	1285	26.455480150935	1
3	1304	26.892839228959	1
3	1309	26.991399003362	1
3	1319	27.175728288762	1
3	1330	27.322990427316	1
3	1333	27.36145291793	1
3	1335	27.377328729917	1
3	1341	27.467307209269	1
3	1348	27.536798046267	1
3	1368	27.948093692196	1
3	1398	28.838458196609	1
3	1404	28.93468823685	1
3	1410	29.000219177394	1
3	1412	29.005582738762	1
3	1429	29.299572872793	1
3	1437	29.464233130277	1
3	1451	29.727029509183	1
3	1454	29.733622245056	1
3	1468	30.05540572456	1
3	1478	30.231495200097	1
3	1489	30.392626651369	1
3	1509	31.017977207799	1
3	1518	31.244973399254	1
3	1524	31.302945737794	1
3	1527	31.320275064167	1
3	1547	31.970296481358	1
3	1552	31.989128851666	1
3	1555	32.070327095201	1
3	1562	32.125793195526	1
3	1565	32.174208229146	1
3	1570	32.215385912364	1
3	1586	33.374323895268	1
3	1589	33.400693010329	1
3	1602	33.695635540621	1
3	1604	33.730248226882	1
3	1625	34.07897105926	1
3	1637	34.280425609392	1
3	1639	34.311311423923	1
3	1641	34.363318153115	1
3	1647	34.385799525671	1
3	1684	35.145465967606	1
3	1699	35.419338714546	1
3	1714	35.705459671499	1
3	1720	35.805419173217	1
3	1731	36.000106155942	1
3	1740	36.112323536979	1
3	1753	36.419373349857	1
3	1763	36.606068890085	1
3	1770	36.682661687986	1
3	1778	36.820890612367	1
3	1800	37.474276896418	1
3	1820	37.902672145422	1
3	1836	38.359559836511	1
3	1847	38.571300416868	1
3	1863	38.895248893019	1
3	1882	39.427639595129	1
3	1892	39.591236600472	1
3	1909	39.994351607594	1
3	1925	40.455804994457	1
3	1934	40.563471964317	1
3	1950	40.904852195282	1
3	1966	41.275265882682	1
3	1977	41.545208047149	1
3	1999	42.112245891338	1
3	2014	42.725525984812	1
3	2024	43.11065596902	1
3	2033	43.361708122376	1
3	2039	43.445020062769	1
3	2047	43.558923216297	1
3	2067	44.092996988427	1
3	2076	44.294209247192	1
3	2086	44.491284029658	1
3	2091	44.545941398978	1
3	2108	44.98603874843	1
3	2115	45.039359423661	1
3	2122	45.105902201995	1
3	2134	45.429257739242	1
3	2137	45.485944513369	1
3	2154	45.870150231472	1
3	2177	46.664681091427	1
3	2195	47.559448550951	1
3	2205	47.922720346064	1
3	2220	48.398624644522	1
3	2223	48.450765622714	1
3	2231	48.646858932072	1
3	2241	48.805286836597	1
3	2244	48.828807059121	1
3	2254	49.003362174218	1
3	2263	49.171146593038	1
3	2268	49.218441719283	1
3	2292	49.875993099945	1
3	2298	49.964593501644	1
3	2315	50.351935922158	1
3	2320	50.430205492615	1
3	2330	50.596148330896	1
3	2352	51.141014915604	1
3	2360	51.292885465286	1
3	2369	51.467805227099	1
3	2372	51.529275812283	1
3	2386	51.741572668345	1
3	2389	51.790337265515	1
3	2396	51.895134320772	1
3	2398	51.914253000088	1
3	2414	52.149428132215	1
3	2434	52.706745973327	1
3	2437	52.738879766267	1
3	2451	52.994415263199	1
3	2454	53.00433917509	1
3	2459	53.043015475189	1
3	2507	55.696856139039	1
3	2513	55.83051916453	1
3	2517	55.908495013124	1
3	2519	55.921083953217	1
3	2523	55.995418212223	1
3	2530	56.054150567111	1
3	2536	56.135113165541	1
3	2554	56.463103029274	1
3	2559	56.535604725928	1
3	2574	56.798863521412	1
3	2593	57.368915431092	1
3	2603	57.531906327167	1
3	2620	57.982732255101	1
3	2626	58.06305248694	1
3	2631	58.102601096336	1
3	2644	58.366649638399	1
3	2680	59.714431922552	1
3	2694	60.497890513353	1
3	2700	60.607799507232	1
3	2706	60.75076233315	1
3	2717	60.948800292105	1
3	2720	60.966978588266	1
3	2729	61.136206289048	1
3	2733	61.151072539101	1
3	2735	61.18578990969	1
3	2740	61.207416698827	1
3	2760	61.699040400632	1
3	2780	62.501935963295	1
3	2783	62.563538336755	1
3	2791	62.758084373968	1
3	2812	63.192873369363	1
3	2832	63.64708489231	1
3	2859	65.238897198979	1
3	2862	65.285489696244	1
3	2887	66.471474827627	1
3	2890	66.546867707027	1
3	2895	66.589763488813	1
3	2907	66.884159107852	1
3	2916	67.043193015617	1
3	2938	67.608003376285	1
3	2950	67.915267494847	1
3	2958	68.019407281268	1
3	2963	68.123288386647	1
3	2966	68.140003207858	1
3	2985	68.438302630573	1
3	3004	68.937297806709	1
3	3019	69.282284165931	1
3	3025	69.368214131207	1
3	3041	69.792829724733	1
3	3053	70.130641079368	1
3	3072	70.601152874341	1
3	3075	70.644156685039	1
3	3077	70.665429365933	1
3	3090	70.962260274828	1
3	3095	71.054188371718	1
3	3116	71.514561789592	1
3	3126	71.720367935673	1
3	3139	72.045078105612	1
3	3158	72.676074445622	1
3	3164	72.787297842661	1
3	3167	72.812220147933	1
3	3179	73.136507072612	1
3	3188	73.266683551004	1
3	3193	73.304234416445	1
3	3204	73.497533054852	1
3	3211	73.591686555081	1
3	3220	73.853837456587	1
3	3232	73.989839470862	1
3	3237	74.082591491121	1
3	3262	74.606915559843	1
3	3279	75.067185193648	1
3	3285	75.108917414148	1
3	3293	75.280542223237	1
3	3315	75.810868219566	1
3	3330	76.114997424486	1
3	3344	76.516065637813	1
3	3351	76.800053104001	1
3	3370	77.690608595422	1
3	3377	77.934753910014	1
3	3386	78.049352917863	1
3	3409	79.580590460031	1
3	3412	79.637924811374	1
3	3417	79.681408167813	1
3	3419	79.750205053182	1
3	3441	80.178269472893	1
3	3459	80.618135340554	1
3	3465	80.708197919503	1
3	3487	81.547934692313	1
3	3490	81.575925180188	1
3	3501	81.875928678133	1
3	3507	81.960253267499	1
3	3516	82.124938275313	1
3	3533	82.437533702848	1
3	3539	82.522119617176	1
3	3546	82.5902149813	1
3	3563	83.03868724149	1
3	3577	83.337742692072	1
3	3596	83.852024805722	1
3	3599	83.858489646383	1
3	3601	83.88265360496	1
3	3622	84.542164029022	1
3	3632	84.602984480928	1
3	3640	84.715760825637	1
3	3657	85.161353382029	1
3	3675	85.563784529337	1
3	3687	86.035253547994	1
3	3697	86.353098673517	1
3	3702	86.447556171339	1
3	3713	86.678190302316	1
3	3719	86.760071508815	1
3	3723	86.82588751106	1
3	3732	86.966774960752	1
3	3742	87.113336379489	1
3	3752	87.30716794331	1
3	3765	87.564725329317	1
3	3768	87.589837040985	1
3	3786	87.971092826258	1
3	3802	88.424459368252	1
3	3820	88.819140806713	1
3	3827	89.010427773088	1
3	3836	89.130311549019	1
3	3850	89.503189513054	1
3	3860	89.634216625124	1
3	3863	89.69982947923	1
3	3868	89.727746572597	1
3	3899	90.567952579129	1
3	3908	90.71246237598	1
3	3919	91.060065390255	1
3	3936	91.541497804724	1
3	3943	91.646551337227	1
3	3961	92.518478581698	1
3	3974	93.26015619971	1
3	3984	93.578532685249	1
3	3996	93.879952734717	1
3	4005	94.011899624386	1
3	4019	94.470923236882	1
3	4024	94.508389688185	1
3	4026	94.520030891881	1
3	4028	94.525616787738	1
3	4030	94.539929154388	1
3	4036	94.602807297659	1
3	4050	94.942221655474	1
3	4057	95.052525436756	1
3	4063	95.143373524882	1
3	4078	95.525058819397	1
3	4090	95.706881889551	1
3	4100	95.856069102937	1
3	4104	95.898547544199	1
3	4113	96.060558382598	1
3	4154	97.014196409323	1
3	4161	97.195761645244	1
3	4172	97.370427762315	1
3	4180	97.485334284043	1
3	4199	97.926858789548	1
3	4202	98.002956460638	1
3	4207	98.022186925815	1
3	4226	98.428106596616	1
3	4234	98.591067336265	1
3	4256	99.168648087349	1
3	4259	99.184723918916	1
3	4267	99.296719403061	1
3	4287	99.835781537203	1
3	4305	100.374462219925	1
3	4311	100.522024223146	1
3	4315	100.613390912985	1
3	4319	100.631144083978	1
3	4324	100.71455445315	1
3	4328	100.734449566147	1
3	4332	100.794297760483	1
3	4344	100.987774655543	1
3	4353	101.124071344674	1
3	4355	101.143714858974	1
3	4360	101.177332400051	1
3	4364	101.228097884649	1
3	4408	102.465843861426	1
3	4418	102.609177451562	1
3	4427	102.751262134632	1
3	4437	102.923442796684	1
3	4446	103.163180571558	1
3	4461	103.382034901694	1
3	4494	104.348764508913	1
3	4501	104.590998034012	1
3	4507	104.677804577218	1
3	4517	104.794431614904	1
3	4525	104.945858488294	1
3	4536	105.186924678513	1
3	4546	105.313856000215	1
3	4549	105.356625645323	1
3	4567	105.745113599605	1
3	4572	105.825684903045	1
3	4584	106.065911614943	1
3	4600	106.466674044779	1
3	4611	106.690505801359	1
3	4617	106.732045807261	1
3	4619	106.765320607366	1
3	4625	106.828503279327	1
3	4627	106.836357679583	1
3	4635	106.905948481093	1
3	4637	106.971971897408	1
3	4648	107.135216756811	1
3	4650	107.138426142075	1
3	4652	107.138612591642	1
3	4659	107.218883518421	1
3	4661	107.226578580003	1
3	4697	107.938037796638	1
3	4708	108.092802098748	1
3	4711	108.173808375582	1
3	4717	108.218148056052	1
3	4719	108.237851560555	1
3	4736	108.522321221341	1
3	4741	108.602493836041	1
3	4759	108.998929779708	1
3	4792	110.066575257607	1
3	4803	110.282359546357	1
3	4813	110.419675121731	1
3	4827	110.716343426726	1
3	4840	111.04382452106	1
3	4849	111.16779154006	1
3	4862	111.406542579986	1
3	4865	111.418393115936	1
3	4867	111.468231662621	1
3	4878	111.612928173097	1
3	4893	111.953406096599	1
3	4901	112.069702036363	1
3	4909	112.183424313033	1
3	4922	112.410631002889	1
3	4936	112.785510244294	1
3	4941	112.821540826554	1
3	4959	113.215689960002	1
3	4962	113.280289686096	1
3	4977	113.531777546506	1
3	4993	113.953333547158	1
3	5007	114.310781387705	1
3	5011	114.387523274866	1
3	5025	114.64158756467	1
3	5035	114.773631467959	1
3	5047	115.039781239199	1
3	5074	115.726890637055	1
3	5077	115.727010369602	1
3	5082	115.807596852182	1
3	5094	115.99713197299	1
3	5098	116.036380223055	1
3	5102	116.08554787672	1
3	5119	116.388230209188	1
3	5135	116.754709330897	1
3	5146	116.964002145664	1
3	5149	116.970338080442	1
3	5161	117.206763998847	1
3	5164	117.223798883802	1
3	5166	117.234533810833	1
3	5172	117.333263046881	1
3	5182	117.468269545941	1
3	5194	117.687495042511	1
3	5196	117.688563934477	1
3	5200	117.715064590684	1
3	5205	117.785832923758	1
3	5216	117.96008324498	1
3	5232	118.2661749013	1
3	5249	118.669782783681	1
3	5252	118.685661736518	1
3	5254	118.703903827164	1
3	5261	118.791184529337	1
3	5283	119.24762231456	1
3	5319	120.355694515378	1
3	5332	120.648713076002	1
3	5360	121.53575114684	1
3	5366	121.568893420445	1
3	5374	121.733264303758	1
3	5384	121.923939499798	1
3	5400	122.256600859447	1
3	5416	122.72179301917	1
3	5425	122.972156997421	1
3	5437	123.212312122983	1
3	5446	123.369008330053	1
3	5468	124.670672093758	1
3	5480	125.157015921587	1
3	5487	125.258701016175	1
3	5490	125.306043072221	1
3	5507	125.770959998699	1
3	5525	126.211653786844	1
3	5531	126.341989464361	1
3	5534	126.352734482261	1
3	5552	126.838295479081	1
3	5570	127.342559984058	1
3	5580	127.740368653864	1
3	5589	128.022118962738	1
3	5595	128.050059061385	1
3	5603	128.197667953604	1
3	5615	128.511817216771	1
3	5629	128.790175294449	1
3	5647	129.23297345526	1
3	5654	129.387190651109	1
3	5664	129.638999851244	1
3	5680	130.017535446251	1
3	5688	130.121540276482	1
3	5691	130.151643047137	1
3	5693	130.204719696585	1
3	5707	130.382118845629	1
3	5719	130.591016372388	1
3	5737	131.103952627053	1
3	5740	131.110803616199	1
3	5766	131.766946768794	1
3	5769	131.780554220919	1
3	5774	131.842777382406	1
3	5789	132.26634835774	1
3	5795	132.338913138983	1
3	5815	132.772144627084	1
3	5833	133.358028884838	1
3	5836	133.363851920389	1
3	5841	133.469829466683	1
3	5843	133.521570440416	1
3	5845	133.536208909252	1
3	5859	133.816676867302	1
3	5874	134.130393997215	1
3	5896	134.727860451712	1
3	5907	134.86164808274	1
3	5920	135.176269145761	1
3	5935	135.508581529262	1
3	5947	135.897608257539	1
3	5956	136.059695519633	1
3	5959	136.082882795594	1
3	5966	136.256452526389	1
3	5975	136.397649032272	1
3	5985	136.532782127035	1
3	6007	137.147242503019	1
3	6014	137.233035874948	1
3	6029	137.594180189917	1
3	6047	138.171609992701	1
3	6050	138.229164481659	1
3	6061	138.505413320589	1
3	6064	138.571334379374	1
3	6081	138.960110097182	1
3	6100	139.526936271061	1
3	6113	140.092152012796	1
3	6127	140.431922580268	1
3	6133	140.503906086306	1
3	6140	140.639323020067	1
3	6162	141.270195213436	1
3	6176	142.191851646123	1
3	6189	142.688075622667	1
3	6203	143.591847476731	1
3	6209	143.768195570835	1
3	6212	143.782788335655	1
3	6224	143.992564151853	1
3	6233	144.186626872116	1
3	6238	144.217149637925	1
3	6259	144.714552788915	1
3	6272	145.07354565358	1
3	6284	145.297958266072	1
3	6287	145.345513940086	1
3	6311	145.913924948367	1
3	6317	146.104729412901	1
3	6330	146.303429178819	1
3	6335	146.337223021667	1
3	6353	146.79889506374	1
3	6359	146.817823133214	1
3	6368	147.068394607689	1
3	6382	147.303174083977	1
3	6395	147.694757613339	1
3	6407	147.863684218697	1
3	6410	147.874804433898	1
3	6422	148.155640797873	1
3	6428	148.235187612821	1
3	6446	148.626368506505	1
3	6456	148.874150466457	1
3	6477	149.888231980313	1
3	6484	150.115377492967	1
3	6487	150.137334241286	1
3	6512	151.153115064541	1
3	6519	151.402498471616	1
3	6531	151.64237353664	1
3	6546	151.857454474644	1
3	6558	152.069108113522	1
3	6570	152.332022760226	1
3	6585	152.641454035248	1
3	6594	152.837320195524	1
3	6597	152.934274890159	1
3	6609	153.138028683467	1
3	6619	153.27232074557	1
3	6639	153.779611737008	1
3	6647	153.991243879989	1
3	6657	154.141619179859	1
3	6662	154.190927359006	1
3	6672	154.382343698384	1
3	6685	154.682714729083	1
3	6699	154.976288865369	1
3	6709	155.125674910437	1
3	6712	155.149113881234	1
3	6719	155.282054307745	1
3	6728	155.423429904052	1
3	6761	156.274206319524	1
3	6764	156.301139993061	1
3	6766	156.315020016768	1
3	6768	156.352089889452	1
3	6781	156.672521411505	1
3	6783	156.673053367251	1
3	6799	156.920285851167	1
3	6805	156.979123552954	1
3	6812	157.110434927733	1
3	6816	157.171474785621	1
3	6821	157.216435807114	1
3	6833	157.397979713517	1
3	6839	157.511050334692	1
3	6851	157.722163953565	1
3	6857	157.796443095331	1
3	6875	158.23070577464	1
3	6885	158.464410947558	1
3	6896	158.631140096865	1
3	6924	159.412163111953	1
3	6942	159.967309788702	1
3	6964	160.502498941514	1
3	6971	160.628155767754	1
3	6979	160.873702240045	1
3	6996	161.214944526814	1
3	7004	161.492463543982	1
3	7016	161.693626988911	1
3	7034	162.262274269193	1
3	7041	162.506699529261	1
3	7053	162.792942191532	1
3	7059	162.871754160366	1
3	7069	163.040611091351	1
3	7088	163.734138590019	1
3	7100	164.080532691808	1
3	7116	164.447576658971	1
3	7120	164.516127903127	1
3	7127	164.555465401704	1
3	7129	164.557941832801	1
3	7138	164.75068354356	1
3	7140	164.77236516363	1
3	7180	166.139719223698	1
3	7187	166.315611786233	1
3	7190	166.328186898632	1
3	7197	166.497924665514	1
3	7203	166.588102519085	1
3	7218	166.842565985166	1
3	7231	167.180117711461	1
3	7242	167.393980158787	1
3	7245	167.404019423181	1
3	7247	167.423435470472	1
3	7266	167.766702123504	1
3	7275	167.89285593373	1
3	7285	168.10584552319	1
3	7293	168.227896504185	1
3	7309	168.55681417398	1
3	7317	168.66018056908	1
3	7328	168.860270476542	1
3	7339	169.047384657989	1
3	7363	169.748264109058	1
3	7373	169.938555759427	1
3	7380	170.044871343195	1
3	7391	170.238246711848	1
3	7404	170.451851351194	1
3	7417	170.768337830453	1
3	7420	170.781366496658	1
3	7429	170.913093912886	1
3	7441	171.114635279016	1
3	7451	171.344207574602	1
3	7462	171.480127845372	1
3	7465	171.489205203793	1
3	7496	172.510231316214	1
3	7503	172.643677694253	1
3	7520	173.371559107595	1
3	7533	173.986309592334	1
3	7536	174.023515644374	1
3	7557	174.578591115963	1
3	7562	174.589217708508	1
3	7576	175.07292005904	1
3	7582	175.105070256693	1
3	7589	175.204532435675	1
3	7591	175.258061965828	1
3	7595	175.280609786598	1
3	7612	175.604419908581	1
3	7620	175.709315708453	1
3	7630	175.905619240233	1
3	7633	175.907138105405	1
3	7643	176.098527435426	1
3	7647	176.111604946334	1
3	7655	176.26776080726	1
3	7683	177.045515016015	1
3	7686	177.047194197538	1
3	7704	177.427898000525	1
3	7711	177.552487218783	1
3	7722	177.746483987949	1
3	7757	179.45848778858	1
3	7777	180.981312160958	1
3	7790	181.410416540837	1
3	7803	181.959461796016	1
3	7809	182.17212307442	1
3	7812	182.193728332837	1
3	7815	182.248411333852	1
3	7823	182.310742681562	1
3	7848	182.943646099493	1
3	7863	183.419788002537	1
3	7870	183.557763824915	1
3	7888	184.096479675601	1
3	7900	184.337933488069	1
3	7911	184.501975223274	1
3	7914	184.558734145607	1
3	7919	184.623169330342	1
3	7926	184.722568023931	1
3	7944	185.087552736599	1
3	7952	185.193314986721	1
3	7954	185.209000329811	1
3	7959	185.334529524677	1
3	7961	185.380841475021	1
3	7963	185.386462160486	1
3	7970	185.476654257461	1
3	7986	185.746611991622	1
3	7988	185.75607301495	1
3	7995	185.802652402752	1
3	8055	187.403955168079	1
3	8066	187.635099071503	1
3	8076	187.887514201899	1
3	8090	188.129134271831	1
3	8098	188.267634738912	1
3	8112	188.566887965294	1
3	8122	188.705915751625	1
3	8125	188.792219249121	1
3	8137	188.977533024155	1
3	8142	189.063872114463	1
3	8157	189.400633863324	1
3	8174	189.752798995626	1
3	8190	190.191309669578	1
3	8198	190.314157019537	1
3	8204	190.460704929614	1
3	8210	190.50206020226	1
3	8219	190.670035812227	1
3	8243	191.259203490689	1
3	8246	191.344113935286	1
3	8248	191.347406221225	1
3	8250	191.354412899318	1
3	8275	191.898366675362	1
3	8278	191.925537324499	1
3	8285	192.011955807996	1
3	8295	192.166416583481	1
3	8301	192.286662522124	1
3	8310	192.405104989791	1
3	8344	193.363930082355	1
3	8354	193.604574205163	1
3	8362	193.748049170283	1
3	8384	194.297186931985	1
3	8394	194.611778317825	1
3	8406	194.91518110063	1
3	8414	195.048100979971	1
3	8417	195.059349342518	1
3	8438	195.671355582923	1
3	8441	195.713756110454	1
3	8455	196.031543036793	1
3	8458	196.063955571947	1
3	8467	196.227769998941	1
3	8481	196.539015953439	1
3	8484	196.561011183563	1
3	8494	196.678536938398	1
3	8500	196.791532238104	1
3	8513	196.998958310061	1
3	8521	197.167592026494	1
3	8549	197.834636635852	1
3	8555	197.918107995284	1
3	8569	198.27847514011	1
3	8580	198.469711406739	1
3	8590	198.62893516302	1
3	8593	198.687755351055	1
3	8595	198.69903482528	1
3	8607	198.869502362635	1
3	8619	199.049079429211	1
3	8629	199.236776254948	1
3	8643	199.511067428683	1
3	8654	199.790791314129	1
3	8659	199.814034321598	1
4	8	0.200070597723	1
4	11	0.218408207214	1
4	22	0.526285168524	1
4	38	0.984350925737	2
4	41	1.070292277811	2
4	46	1.102628343184	2
4	51	1.281388417523	3
4	66	1.491980863331	4
4	90	2.050588574896	1
4	99	2.194234993599	2
4	115	2.760781629165	3
4	118	2.765513124701	3
4	120	2.799063261954	4
4	122	2.809433069138	5
4	127	2.867492664755	5
4	129	2.938710272538	6
4	131	2.951920001958	7
4	135	2.976475266317	7
4	143	3.121791686831	7
4	159	3.418508060885	6
4	162	3.42609096082	7
4	168	3.465362667007	8
4	174	3.617947383406	9
4	182	3.768852762458	10
4	191	4.030697648249	11
4	201	4.091399368028	12
4	206	4.17300068715	12
4	212	4.282202897155	12
4	226	4.56415260011	10
4	237	4.733784207306	9
4	249	4.957210395792	8
4	272	5.568539933673	8
4	275	5.574608466282	9
4	289	5.93753157867	10
4	298	6.142126475072	11
4	313	7.051181822982	12
4	316	7.126205671318	12
4	324	7.254897618262	11
4	331	7.388976726159	11
4	343	7.5901483842	10
4	349	7.673501395332	10
4	356	7.764952167598	10
4	372	8.060291388003	8
4	384	8.28113837413	7
4	392	8.42629563478	7
4	398	8.506663993214	7
4	400	8.549321853723	8
4	409	8.700884365186	9
4	418	8.897556054329	10
4	432	9.251914860797	11
4	445	9.630804734066	12
4	461	10.056152916073	13
4	464	10.147604735197	14
4	475	10.222066556684	15
4	480	10.284810212417	15
4	507	10.843693987501	10
4	514	10.96643799551	10
4	530	11.28327446358	8
4	566	11.971995666788	2
4	568	11.977203153505	3
4	604	12.909580894458	1
4	610	12.94807778886	1
4	622	13.227055815649	2
4	628	13.325429887343	3
4	645	13.908263756833	4
4	659	14.322041566039	5
4	681	14.789338134211	6
4	689	14.916624458344	5
4	694	15.035325861581	5
4	701	15.173542469944	5
4	707	15.197729952009	5
4	715	15.331218837649	5
4	730	15.596122674052	3
4	748	15.982901064497	1
4	759	16.186922364233	1
4	775	16.499483928007	1
4	783	16.611667687697	1
4	786	16.61751493032	1
4	788	16.681255574868	2
4	795	16.776119859647	2
4	805	16.906557765689	2
4	819	17.11338179742	1
4	826	17.271601980412	1
4	842	17.616339764318	1
4	848	17.694755799905	1
4	860	17.929916810201	1
4	866	18.016171443998	1
4	870	18.073007826087	1
4	879	18.225985537017	1
4	894	18.491048080085	1
4	911	18.983531530622	1
4	924	19.255216985696	1
4	934	19.47584207707	1
4	954	19.987967467776	1
4	959	20.071307490074	1
4	977	20.488111002695	1
4	983	20.569535750162	2
4	988	20.686686793654	3
4	997	20.838255868013	4
4	1000	20.857800344016	5
4	1006	20.915282706179	6
4	1017	21.272665116589	7
4	1024	21.328882224322	8
4	1027	21.345355697933	9
4	1035	21.525760394136	10
4	1051	21.985537888396	11
4	1054	22.008355551901	11
4	1067	22.303284360988	9
4	1073	22.468495762419	9
4	1085	22.616098487024	8
4	1092	22.728521795709	8
4	1099	22.841009488796	8
4	1116	23.148491700494	6
4	1127	23.329958172	5
4	1143	23.673298976957	3
4	1155	23.826113448703	2
4	1172	24.119792140239	1
4	1188	24.532829219995	1
4	1201	24.824964883136	1
4	1208	24.920018241308	1
4	1216	25.036959822296	1
4	1235	25.501093679377	1
4	1246	25.776850287333	1
4	1257	25.944839243104	1
4	1264	26.048660786382	1
4	1275	26.242857992977	1
4	1286	26.455480150935	1
4	1305	26.892839228959	1
4	1310	26.991399003362	1
4	1320	27.175728288762	1
4	1331	27.322990427316	1
4	1334	27.36145291793	1
4	1336	27.377328729917	2
4	1342	27.467307209269	2
4	1349	27.536798046267	2
4	1369	27.948093692196	1
4	1399	28.838458196609	1
4	1405	28.93468823685	1
4	1411	29.000219177394	1
4	1413	29.005582738762	2
4	1430	29.299572872793	1
4	1438	29.464233130277	1
4	1452	29.727029509183	1
4	1455	29.733622245056	1
4	1469	30.05540572456	1
4	1479	30.231495200097	1
4	1490	30.392626651369	1
4	1510	31.017977207799	2
4	1519	31.244973399254	3
4	1525	31.302945737794	4
4	1528	31.320275064167	5
4	1548	31.970296481358	6
4	1553	31.989128851666	7
4	1556	32.070327095201	8
4	1563	32.125793195526	9
4	1566	32.174208229146	10
4	1571	32.215385912364	11
4	1587	33.374323895268	12
4	1590	33.400693010329	12
4	1603	33.695635540621	10
4	1605	33.730248226882	11
4	1626	34.07897105926	8
4	1638	34.280425609392	7
4	1640	34.311311423923	8
4	1642	34.363318153115	9
4	1648	34.385799525671	9
4	1685	35.145465967606	3
4	1700	35.419338714546	1
4	1715	35.705459671499	1
4	1721	35.805419173217	1
4	1732	36.000106155942	1
4	1741	36.112323536979	1
4	1754	36.419373349857	1
4	1764	36.606068890085	1
4	1771	36.682661687986	1
4	1779	36.820890612367	1
4	1801	37.474276896418	1
4	1821	37.902672145422	1
4	1837	38.359559836511	1
4	1848	38.571300416868	1
4	1864	38.895248893019	1
4	1883	39.427639595129	1
4	1893	39.591236600472	1
4	1910	39.994351607594	1
4	1926	40.455804994457	1
4	1935	40.563471964317	1
4	1951	40.904852195282	1
4	1967	41.275265882682	1
4	1978	41.545208047149	1
4	2000	42.112245891338	1
4	2015	42.725525984812	1
4	2025	43.11065596902	1
4	2034	43.361708122376	1
4	2040	43.445020062769	1
4	2048	43.558923216297	1
4	2068	44.092996988427	1
4	2077	44.294209247192	1
4	2087	44.491284029658	1
4	2092	44.545941398978	1
4	2109	44.98603874843	1
4	2116	45.039359423661	1
4	2123	45.105902201995	1
4	2135	45.429257739242	1
4	2138	45.485944513369	1
4	2155	45.870150231472	1
4	2178	46.664681091427	1