version 3
run FeedbackVersion-8-20240511-20:48:08-11935
attr configname FeedbackVersion
attr datetime 20240511-20:48:08
attr datetimef 20240511-204808
attr experiment FeedbackVersion
attr inifile omnetpp.ini
attr iterationvars $genInterval=0.5
attr iterationvarsd genInterval=0.5
attr iterationvarsf genInterval=0.5-
attr measurement $genInterval=0.5
attr network NetworkFV
attr processid 11935
attr repetition 0
attr replication #0
attr resultdir results
attr runnumber 8
attr seedset 8
itervar genInterval 0.5
config network NetworkFV
config sim-time-limit 200s
config NetworkFV.nodeTx.gen.generationInterval exponential(0.5)
config NetworkFV.nodeTx.gen.packetByteSize 12500
config NetworkFV.queueOne.bufferSize 200
config NetworkFV.nodeRx.queue.bufferSize 200
config NetworkFV.nodeTx.queue.bufferSize 2000000
config NetworkFV.queueZero.bufferSize 200

vector 0 NetworkFV.nodeRx.queue PacketsLost ETV
vector 1 NetworkFV.nodeRx.queue PacketsAsked ETV
vector 2 NetworkFV.queueOne bufferSize ETV
vector 3 NetworkFV.nodeTx.gen packetGen ETV
vector 4 NetworkFV.nodeTx.queue BufferSize ETV
vector 5 NetworkFV.nodeTx.queue PacketsSent ETV
vector 6 NetworkFV.queueZero bufferSize ETV
vector 7 NetworkFV.nodeRx.queue BufferSize ETV
vector 8 NetworkFV.nodeRx.sink Delay ETV
vector 9 NetworkFV.nodeRx.sink packetUsed ETV
0	1	0	1
0	6	0.2	1
0	7	0.4	1
0	8	0.6	1
0	9	0.8	1
0	10	1	1
0	19	1.2	1
0	50	2.0004	1
0	51	2.3006	1
0	52	2.6008	1
0	59	2.901	1
0	81	3.8016	1
0	88	4.1018	1
0	123	5.3026	1
0	133	5.6028	1
0	188	7.1038	1
0	195	7.404	1
0	243	8.905	1
0	247	9.2052	1
0	263	9.8056	1
0	274	10.406	1
0	275	10.7062	1
0	282	11.0064	1
0	329	12.5074	1
0	339	13.1078	1
0	367	14.0084	1
0	378	14.6088	1
0	385	14.909	1
0	402	15.5094	1
0	463	17.3106	1
0	464	17.6108	1
0	465	17.911	1
0	472	18.2112	1
0	479	18.8116	1
0	483	19.1118	1
0	552	20.6128	1
0	553	20.913	1
0	554	21.2132	1
0	555	21.5134	1
0	556	21.8136	1
0	565	22.1138	1
0	584	22.414	1
0	702	24.8156	1
0	703	25.1158	1
0	704	25.416	1
0	713	25.7162	1
0	725	26.3166	1
0	726	26.6168	1
0	737	26.917	1
0	774	27.8176	1
0	784	28.418	1
0	785	28.7182	1
0	786	29.0184	1
0	787	29.3186	1
0	788	29.6188	1
0	798	29.919	1
0	814	30.2192	1
0	826	30.5194	1
0	864	31.7202	1
0	871	32.0204	1
0	908	33.2212	1
0	909	33.5214	1
0	910	33.8216	1
0	921	34.1218	1
0	1113	38.925	1
0	1130	39.5254	1
0	1166	40.7262	1
0	1170	41.0264	1
0	1180	41.6268	1
0	1190	41.927	1
0	1209	42.8276	1
0	1210	43.1278	1
0	1211	43.428	1
0	1212	43.7282	1
0	1213	44.0284	1
0	1220	44.3286	1
0	1258	45.2292	1
0	1289	45.8296	1
0	1322	46.7302	1
0	1407	49.1318	1
0	1431	50.0324	1
0	1456	50.933	1
0	1465	51.2332	1
0	1488	52.1338	1
0	1489	52.434	1
0	1490	52.7342	1
0	1497	53.0344	1
0	1520	53.935	1
0	1521	54.2352	1
0	1522	54.5354	1
0	1529	54.8356	1
0	1570	56.0364	1
0	1583	56.6368	1
0	1620	57.8376	1
0	1649	58.7382	1
0	1734	60.8396	1
0	1780	62.3406	1
0	1800	62.941	1
0	1824	63.8416	1
0	1831	64.1418	1
0	1844	64.7422	1
0	1855	65.3426	1
0	1856	65.6428	1
0	1857	65.943	1
0	1858	66.2432	1
0	1865	66.5434	1
0	1889	67.444	1
0	1928	68.6448	1
0	1937	68.945	1
0	1956	69.5454	1
0	1974	70.1458	1
0	1990	70.7462	1
0	2032	71.947	1
0	2044	72.2472	1
0	2062	72.8476	1
0	2080	73.7482	1
0	2087	74.0484	1
0	2094	74.6488	1
0	2099	74.949	1
0	2100	75.2492	1
0	2112	75.5494	1
0	2151	76.45	1
0	2178	77.3506	1
0	2185	77.6508	1
0	2220	78.5514	1
0	2243	79.452	1
0	2250	79.7522	1
0	2275	80.6528	1
0	2294	81.5534	1
0	2295	81.8536	1
0	2296	82.1538	1
0	2310	82.454	1
0	2334	83.3546	1
0	2361	83.955	1
0	2412	85.1558	1
0	2426	85.7562	1
0	2433	86.0564	1
0	2440	86.6568	1
0	2441	86.957	1
0	2448	87.2572	1
0	2459	87.8576	1
0	2466	88.1578	1
0	2525	89.6588	1
0	2529	89.959	1
0	2545	90.5594	1
0	2579	91.46	1
0	2590	91.7602	1
0	2621	92.961	1
0	2628	93.2612	1
0	2635	93.8616	1
0	2636	94.1618	1
0	2641	94.462	1
0	2642	94.7622	1
0	2643	95.0624	1
0	2644	95.3626	1
0	2645	95.6628	1
0	2646	95.963	1
0	2660	96.2632	1
0	2670	96.5634	1
0	2671	96.8636	1
0	2672	97.1638	1
0	2673	97.464	1
0	2674	97.7642	1
0	2675	98.0644	1
0	2683	98.3646	1
0	2688	98.6648	1
0	2693	98.965	1
0	2698	99.2652	1
0	2699	99.5654	1
0	2703	99.8656	1
0	2720	100.1658	1
0	2736	100.7662	1
0	2737	101.0664	1
0	2749	101.3666	1
0	2765	101.967	1
0	2769	102.2672	1
0	2809	103.468	1
0	2836	104.3686	1
0	2855	105.2692	1
0	2862	105.5694	1
0	2869	106.1698	1
0	2870	106.47	1
0	2875	106.7702	1
0	2876	107.0704	1
0	2880	107.3706	1
0	2893	107.971	1
0	2906	108.5714	1
0	2920	109.1718	1
0	2921	109.472	1
0	2922	109.7722	1
0	2931	110.0724	1
0	3012	111.8736	1
0	3013	112.1738	1
0	3014	112.474	1
0	3015	112.7742	1
0	3016	113.0744	1
0	3017	113.3746	1
0	3030	113.6748	1
0	3057	114.5754	1
0	3058	114.8756	1
0	3062	115.1758	1
0	3130	116.977	1
0	3134	117.2772	1
0	3169	118.1778	1
0	3190	118.7782	1
0	3227	119.979	1
0	3246	120.8796	1
0	3250	121.1798	1
0	3276	121.7802	1
0	3378	124.1818	1
0	3404	125.0824	1
0	3405	125.3826	1
0	3409	125.6828	1
0	3477	127.484	1
0	3484	127.7842	1
0	3497	128.3846	1
0	3710	133.1878	1
0	3714	133.488	1
0	3735	134.3886	1
0	3742	134.6888	1
0	3749	135.2892	1
0	3756	135.5894	1
0	3796	136.49	1
0	3817	137.3906	1
0	3862	138.5914	1
0	3945	140.6928	1
0	3946	140.993	1
0	3955	141.2932	1
0	3970	142.1938	1
0	3980	142.494	1
0	4001	143.3946	1
0	4024	144.2952	1
0	4028	144.5954	1
0	4072	145.7962	1
0	4079	146.3966	1
0	4080	146.6968	1
0	4081	146.997	1
0	4082	147.2972	1
0	4089	147.5974	1
0	4106	148.1978	1
0	4120	148.7982	1
0	4130	149.3986	1
0	4131	149.6988	1
0	4132	149.999	1
0	4139	150.2992	1
0	4182	151.5	1
0	4241	153.001	1
0	4261	153.6014	1
0	4279	154.502	1
0	4323	155.7028	1
0	4377	157.2038	1
0	4419	158.7048	1
0	4420	159.005	1
0	4421	159.3052	1
0	4422	159.6054	1
0	4429	159.9056	1
0	4440	160.506	1
0	4441	160.8062	1
0	4442	161.1064	1
0	4443	161.4066	1
0	4450	161.7068	1
0	4463	162.3072	1
0	4474	162.9076	1
0	4480	163.2078	1
0	4518	164.4086	1
0	4519	164.7088	1
0	4520	165.009	1
0	4527	165.3092	1
0	4589	166.8102	1
0	4596	167.4106	1
0	4597	167.7108	1
0	4598	168.011	1
0	4599	168.3112	1
0	4600	168.6114	1
0	4605	168.9116	1
0	4612	169.2118	1
0	4622	169.8122	1
0	4646	170.4126	1
0	4673	171.3132	1
0	4691	171.9136	1
0	4702	172.514	1
0	4708	172.8142	1
0	4759	174.3152	1
0	4770	174.9156	1
0	4771	175.2158	1
0	4780	175.516	1
0	4792	176.1164	1
0	4799	176.4166	1
0	4806	177.017	1
0	4811	177.3172	1
0	4812	177.6174	1
0	4819	177.9176	1
0	4832	178.518	1
0	4851	179.4186	1
0	4860	179.7188	1
0	4874	180.019	1
0	4878	180.3192	1
0	4895	180.9196	1
0	4896	181.2198	1
0	4897	181.52	1
0	4908	181.8202	1
0	4927	182.4206	1
0	4964	183.6214	1
0	4965	183.9216	1
0	4974	184.2218	1
0	5029	186.023	1
0	5030	186.3232	1
0	5037	186.6234	1
0	5067	187.8242	1
0	5068	188.1244	1
0	5075	188.4246	1
0	5086	189.025	1
0	5087	189.3252	1
0	5088	189.6254	1
0	5095	189.9256	1
0	5111	190.526	1
0	5268	194.1284	1
0	5269	194.4286	1
0	5270	194.7288	1
0	5277	195.029	1
0	5356	196.8302	1
0	5363	197.4306	1
0	5364	197.7308	1
0	5365	198.031	1
0	5366	198.3312	1
0	5367	198.6314	1
0	5375	198.9316	1
1	1	0	2
1	19	1.2	1
1	27	1.333677525325	0
1	33	1.4	1
1	41	1.533677525325	2
1	72	3.26879561748	3
1	114	4.838109405024	5
1	179	6.571775724019	7
1	265	9.817400370488	11
1	367	14.0084	5
1	428	15.93527875677	5
1	483	19.1118	2
1	510	19.604941697822	2
1	537	20.004941697822	4
1	565	22.1138	2
1	578	22.351791427399	2
1	606	22.751791427399	3
1	644	23.357680367739	4
1	687	24.157680367739	7
1	726	26.6168	3
1	762	27.498213007239	3
1	788	29.6188	1
1	808	30.149554394788	1
1	828	30.647919326639	2
1	855	31.248127022775	4
1	899	32.792814348869	6
1	972	35.129232724227	9
1	1067	37.490086523467	13
1	1190	41.927	6
1	1220	44.3286	2
1	1238	44.845232365903	2
1	1270	45.483724761274	3
1	1310	46.250370201837	5
1	1362	47.804040876808	7
1	1447	50.43744064321	11
1	1497	53.0344	5
1	1555	55.549101806094	5
1	1622	57.997785936162	8
1	1722	60.310765210906	12
1	1844	64.7422	6
1	1889	67.444	2
1	1907	67.85924777354	2
1	1939	69.066602415934	3
1	1976	70.334531311716	4
1	2023	71.547496621967	7
1	2094	74.6488	3
1	2134	75.997612916879	3
1	2169	76.890560538603	5
1	2234	79.092727419515	8
1	2296	82.1538	4
1	2346	83.640775363599	4
1	2394	84.831175779477	6
1	2448	87.2572	3
1	2488	88.492585403385	3
1	2516	89.092585403385	4
1	2570	91.134342005009	6
1	2636	94.1618	3
1	2646	95.963	1
1	2662	96.377644422331	1
1	2675	98.0644	0
1	2683	98.3646	0
1	2688	98.6648	0
1	2693	98.965	1
1	2711	100.122336311746	1
1	2727	100.456892759374	2
1	2756	101.605310408094	4
1	2797	103.087271465048	6
1	2870	106.47	3
1	2911	108.831280193699	3
1	2954	110.5836612235	4
1	3003	111.513946090568	7
1	3017	113.3746	3
1	3048	114.108660818982	3
1	3090	115.795749586632	5
1	3151	117.819330342572	8
1	3259	121.424984646256	12
1	3395	124.695596078721	18
1	3497	128.3846	9
1	3598	130.521400647221	9
1	3695	132.572139164834	13
1	3756	135.5894	7
1	3834	137.773318945121	6
1	3909	139.521325713436	10
1	4001	143.3946	5
1	4057	145.49577916363	5
1	4089	147.5974	2
1	4108	148.325036356393	2
1	4141	150.402083246535	3
1	4184	151.638406899253	5
1	4243	153.160846374881	8
1	4342	156.160664962443	13
1	4429	159.9056	6
1	4463	162.3072	2
1	4487	163.424544506167	2
1	4509	163.97850676886	3
1	4555	165.967124995165	4
1	4600	168.6114	2
1	4627	170.030277146505	2
1	4656	170.748778309524	3
1	4693	171.929162064577	5
1	4761	174.411398299338	8
1	4806	177.017	4
1	4860	179.7188	1
1	4866	179.916926072846	1
1	4886	180.610109819993	2
1	4915	182.062216850115	3
1	4955	183.03652010544	4
1	5000	184.918882458474	7
1	5075	188.4246	3
1	5117	190.694866446709	3
1	5155	191.341220982071	5
1	5207	192.346304373763	7
1	5296	195.461417082981	11
1	5367	198.6314	6
2	2	0	1
2	20	1.2	1
2	29	1.333677525325	1
2	34	1.4	1
2	43	1.533677525325	1
2	74	3.26879561748	1
2	116	4.838109405024	1
2	181	6.571775724019	1
2	267	9.817400370488	1
2	368	14.0084	1
2	430	15.93527875677	1
2	484	19.1118	1
2	512	19.604941697822	1
2	539	20.004941697822	1
2	566	22.1138	1
2	580	22.351791427399	1
2	608	22.751791427399	1
2	646	23.357680367739	1
2	689	24.157680367739	1
2	727	26.6168	1
2	764	27.498213007239	1
2	789	29.6188	1
2	810	30.149554394788	1
2	830	30.647919326639	1
2	857	31.248127022775	1
2	901	32.792814348869	1
2	974	35.129232724227	1
2	1069	37.490086523467	1
2	1191	41.927	1
2	1221	44.3286	1
2	1240	44.845232365903	1
2	1272	45.483724761274	1
2	1312	46.250370201837	1
2	1364	47.804040876808	1
2	1449	50.43744064321	1
2	1498	53.0344	1
2	1557	55.549101806094	1
2	1624	57.997785936162	1
2	1724	60.310765210906	1
2	1845	64.7422	1
2	1890	67.444	1
2	1909	67.85924777354	1
2	1941	69.066602415934	1
2	1978	70.334531311716	1
2	2025	71.547496621967	1
2	2095	74.6488	1
2	2136	75.997612916879	1
2	2171	76.890560538603	1
2	2236	79.092727419515	1
2	2297	82.1538	1
2	2348	83.640775363599	1
2	2396	84.831175779477	1
2	2449	87.2572	1
2	2490	88.492585403385	1
2	2518	89.092585403385	1
2	2572	91.134342005009	1
2	2637	94.1618	1
2	2647	95.963	1
2	2664	96.377644422331	1
2	2676	98.0644	1
2	2684	98.3646	1
2	2689	98.6648	1
2	2694	98.965	1
2	2713	100.122336311746	1
2	2729	100.456892759374	1
2	2758	101.605310408094	1
2	2799	103.087271465048	1
2	2871	106.47	1
2	2913	108.831280193699	1
2	2956	110.5836612235	1
2	3005	111.513946090568	1
2	3018	113.3746	1
2	3050	114.108660818982	1
2	3092	115.795749586632	1
2	3153	117.819330342572	1
2	3261	121.424984646256	1
2	3397	124.695596078721	1
2	3498	128.3846	1
2	3600	130.521400647221	1
2	3697	132.572139164834	1
2	3757	135.5894	1
2	3836	137.773318945121	1
2	3911	139.521325713436	1
2	4002	143.3946	1
2	4059	145.49577916363	1
2	4090	147.5974	1
2	4110	148.325036356393	1
2	4143	150.402083246535	1
2	4186	151.638406899253	1
2	4245	153.160846374881	1
2	4344	156.160664962443	1
2	4430	159.9056	1
2	4464	162.3072	1
2	4489	163.424544506167	1
2	4511	163.97850676886	1
2	4557	165.967124995165	1
2	4601	168.6114	1
2	4629	170.030277146505	1
2	4658	170.748778309524	1
2	4695	171.929162064577	1
2	4763	174.411398299338	1
2	4807	177.017	1
2	4861	179.7188	1
2	4868	179.916926072846	1
2	4888	180.610109819993	1
2	4917	182.062216850115	1
2	4957	183.03652010544	1
2	5002	184.918882458474	1
2	5076	188.4246	1
2	5119	190.694866446709	1
2	5157	191.341220982071	1
2	5209	192.346304373763	1
2	5298	195.461417082981	1
2	5368	198.6314	1
3	11	1.033477525325	1
3	14	1.039065857794	1
3	53	2.76859561748	1
3	60	2.905445473251	1
3	82	3.922467516623	1
3	89	4.159486977546	1
3	104	4.537909405024	1
3	124	5.38557422983	1
3	130	5.518031398752	1
3	141	5.79242566381	1
3	144	5.798157797687	1
3	163	6.271575724019	1
3	175	6.553046595708	1
3	189	7.27939815991	1
3	198	7.536774288867	1
3	212	7.793793941382	1
3	225	8.163572431947	1
3	244	9.191781104633	1
3	255	9.517200370488	1
3	276	10.822016395572	1
3	288	11.227257588005	1
3	291	11.30647691584	1
3	305	11.698435375123	1
3	323	12.302974809507	1
3	336	13.018402254362	1
3	343	13.276051201545	1
3	361	13.899099323141	1
3	379	14.751704861739	1
3	392	15.23507875677	1
3	395	15.245834274718	1
3	403	15.523477164458	1
3	416	15.741036387436	1
3	424	15.911630577714	1
3	442	16.240640375117	1
3	466	18.062693612412	1
3	480	19.101678499412	1
3	491	19.304741697822	1
3	494	19.332398056982	1
3	503	19.455860776156	1
3	516	19.61132052575	1
3	519	19.645357382591	1
3	531	19.818113597066	1
3	557	21.851591427399	1
3	585	22.415900594769	1
3	590	22.484300795118	1
3	601	22.663079906348	1
3	614	22.857480367739	1
3	623	22.958356607091	1
3	625	22.995149116029	1
3	639	23.28526233928	1
3	650	23.412560061301	1
3	670	23.791125365414	1
3	681	24.041261873581	1
3	705	25.493330138225	1
3	731	26.625709959686	1
3	741	26.986100486044	1
3	749	27.198013007239	1
3	771	27.757784825573	1
3	793	29.849354394788	1
3	796	29.914242253335	1
3	799	29.928818702948	1
3	804	30.13103023123	1
3	817	30.347719326639	1
3	823	30.508135227503	1
3	836	30.747927022775	1
3	851	31.170313242344	1
3	865	31.892614348869	1
3	887	32.432196720347	1
3	911	33.829032724227	1
3	917	33.994731813961	1
3	927	34.187335015939	1
3	933	34.266590787493	1
3	948	34.549826848239	1
3	951	34.610238986335	1
3	960	34.767694192161	1
3	980	35.314927018171	1
3	1010	36.122292698117	1
3	1013	36.155231708351	1
3	1035	36.663617197238	1
3	1047	36.989886523467	1
3	1050	37.025468134064	1
3	1073	37.548626066619	1
3	1087	38.011347907685	1
3	1091	38.085604757862	1
3	1110	38.879380728197	1
3	1123	39.460061739553	1
3	1126	39.476327550972	1
3	1128	39.493074431683	1
3	1141	39.796970188061	1
3	1167	40.977111820586	1
3	1181	41.757846677262	1
3	1187	41.886203810718	1
3	1214	44.1231222118	1
3	1230	44.545032365903	1
3	1247	44.983524761274	1
3	1253	45.134927304229	1
3	1256	45.154772110685	1
3	1261	45.254493075102	1
3	1277	45.550170201837	1
3	1287	45.784538028827	1
3	1295	45.888771736834	1
3	1306	46.210677844505	1
3	1319	46.703840876808	1
3	1326	46.848003214967	1
3	1330	46.969241454969	1
3	1368	47.89560674269	1
3	1374	47.977437183376	1
3	1401	48.911880289769	1
3	1411	49.29597117793	1
3	1426	49.93724064321	1
3	1429	49.990135834313	1
3	1440	50.281854194662	1
3	1457	50.938670715402	1
3	1469	51.336246393841	1
3	1491	52.740052150089	1
3	1507	53.232648695648	1
3	1523	54.667799628758	1
3	1533	55.014109143818	1
3	1542	55.248901806094	1
3	1564	55.917849228287	1
3	1577	56.370710425364	1
3	1587	56.675714095754	1
3	1601	57.218043218478	1
3	1614	57.697585936162	1
3	1628	58.054853528603	1
3	1643	58.60211328103	1
3	1653	58.920395186342	1
3	1662	59.210565210906	1
3	1665	59.215021151484	1
3	1670	59.221769538238	1
3	1672	59.256925197633	1
3	1674	59.270053531499	1
3	1689	59.555355701971	1
3	1701	59.713516115182	1
3	1710	59.995887496408	1
3	1731	60.760352835115	1
3	1738	60.863178847155	1
3	1777	62.293169438321	1
3	1788	62.670367339601	1
3	1793	62.732724017412	1
3	1809	63.189728497519	1
3	1825	63.874267881242	1
3	1838	64.51240428282	1
3	1859	66.430378813193	1
3	1866	66.613305753797	1
3	1883	67.299958591882	1
3	1894	67.55904777354	1
3	1913	67.90121389713	1
3	1929	68.766402415934	1
3	1932	68.828911222637	1
3	1948	69.271222896245	1
3	1968	70.034331311716	1
3	1985	70.647296621967	1
3	1988	70.663850519234	1
3	1999	71.021119945135	1
3	2005	71.077602443154	1
3	2033	71.963762249024	1
3	2039	72.099930769904	1
3	2056	72.737625819076	1
3	2063	72.930736267174	1
3	2081	73.936671380647	1
3	2101	75.265097197959	1
3	2107	75.378804633865	1
3	2118	75.697412916879	1
3	2130	75.874704947432	1
3	2143	76.190360538603	1
3	2155	76.513305365922	1
3	2179	77.35609137061	1
3	2189	77.696310018832	1
3	2197	77.834582293111	1
3	2214	78.302416079647	1
3	2226	78.792527419515	1
3	2244	79.646978618827	1
3	2254	80.022030773524	1
3	2267	80.397126456959	1
3	2281	80.860498703181	1
3	2301	82.260615500055	1
3	2307	82.414780401768	1
3	2325	83.057341849105	1
3	2331	83.340575363599	1
3	2338	83.439043490646	1
3	2355	83.792668167249	1
3	2370	84.276099012985	1
3	2381	84.530975779477	1
3	2403	84.944067567692	1
3	2409	85.113542684526	1
3	2427	85.834244592703	1
3	2442	87.105385372955	1
3	2460	87.927002531138	1
3	2467	88.192385403385	1
3	2478	88.369741840781	1
3	2484	88.487714803186	1
3	2494	88.562188004819	1
3	2526	89.859861250625	1
3	2539	90.364335594956	1
3	2546	90.634142005009	1
3	2549	90.638313548797	1
3	2554	90.713558098811	1
3	2580	91.490520122698	1
3	2583	91.543050279733	1
3	2598	91.891705584955	1
3	2622	93.152693461441	1
3	2651	96.077444422331	1
3	2657	96.254236405427	1
3	2680	98.323091425375	1
3	2700	99.822136311746	1
3	2707	99.95092528643	1
3	2717	100.156692759374	1
3	2738	101.105110408094	1
3	2746	101.34923577632	1
3	2766	102.187071465048	1
3	2806	103.401794750128	1
3	2813	103.536476439025	1
3	2830	104.103028213624	1
3	2842	104.637826816415	1
3	2856	105.389438141279	1
3	2877	107.279300015221	1
3	2890	107.873500410223	1
3	2903	108.531080193699	1
3	2923	109.8834612235	1
3	2926	109.933718675057	1
3	2934	110.177735765246	1
3	2950	110.524915833046	1
3	2960	110.613746090568	1
3	2974	110.924029207433	1
3	2982	111.074091958929	1
3	2985	111.074464044645	1
3	2990	111.15629864873	1
3	3022	113.408460818982	1
3	3044	114.043740014013	1
3	3059	115.0940519202	1
3	3074	115.495549586632	1
3	3083	115.617995730792	1
3	3098	115.908507904122	1
3	3112	116.373420740334	1
3	3131	117.199845239691	1
3	3141	117.519130342572	1
3	3160	117.930578984839	1
3	3166	118.153026860799	1
3	3184	118.675230498261	1
3	3194	119.051989649388	1
3	3203	119.304388584146	1
3	3221	119.720389925583	1
3	3233	120.228257473517	1
3	3247	121.124784646256	1
3	3251	121.191170774755	1
3	3253	121.223607169098	1
3	3266	121.50648267025	1
3	3284	121.972650331325	1
3	3300	122.314467935994	1
3	3315	122.664667387206	1
3	3324	122.935123190549	1
3	3331	123.022477708772	1
3	3343	123.239730985908	1
3	3347	123.318318471678	1
3	3370	123.887560304035	1
3	3384	124.395396078721	1
3	3391	124.592731293143	1
3	3406	125.665121034079	1
3	3413	125.77453659429	1
3	3415	125.791245606883	1
3	3429	126.100489491923	1
3	3443	126.37981678505	1
3	3446	126.460659340925	1
3	3478	127.512088421785	1
3	3491	128.148741839261	1
3	3505	128.472357722726	1
3	3519	128.911417998218	1
3	3526	129.140511292761	1
3	3538	129.421200647221	1
3	3549	129.558847050385	1
3	3552	129.58299766455	1
3	3555	129.607714532002	1
3	3572	130.005088241999	1
3	3577	130.101375277972	1
3	3584	130.169015878664	1
3	3604	130.575855230488	1
3	3622	131.008053649002	1
3	3638	131.385655888385	1
3	3644	131.479064938845	1
3	3657	131.871939164834	1
3	3663	131.898877308511	1
3	3673	132.07653862723	1
3	3687	132.395386190139	1
3	3711	133.398199406438	1
3	3718	133.526424342577	1
3	3736	134.464908341623	1
3	3750	135.301305217269	1
3	3764	135.614704462243	1
3	3767	135.688904655301	1
3	3788	136.38477564172	1
3	3791	136.430157897967	1
3	3811	137.195403510356	1
3	3818	137.473118945121	1
3	3830	137.702628513309	1
3	3852	138.294041399904	1
3	3855	138.391631192878	1
3	3868	138.750077057808	1
3	3880	138.895835435211	1
3	3891	139.221125713436	1
3	3902	139.356434013059	1
3	3915	139.56524114251	1
3	3926	139.813945461261	1
3	3947	141.107286729587	1
3	3950	141.110902979417	1
3	3971	142.324733668911	1
3	3977	142.489604729246	1
3	3995	143.104938442878	1
3	4009	143.490028278301	1
3	4025	144.522515513661	1
3	4032	144.797523413305	1
3	4047	145.19557916363	1
3	4064	145.575037132648	1
3	4083	147.351150748526	1
3	4100	148.024836356393	1
3	4117	148.763495278487	1
3	4133	150.101883246535	1
3	4149	150.510263252053	1
3	4156	150.707523647606	1
3	4173	151.338206899253	1
3	4179	151.495955250923	1
3	4190	151.736101228211	1
3	4204	152.059446730445	1
3	4217	152.390333903874	1
3	4235	152.860646374881	1
3	4252	153.444786242967	1
3	4258	153.548452366825	1
3	4276	154.489248634824	1
3	4280	154.503445988297	1
3	4287	154.71925191234	1
3	4296	154.833325906563	1
3	4320	155.660464962443	1
3	4327	155.801052980947	1
3	4335	155.983558651434	1
3	4350	156.270202302293	1
3	4371	156.942912002013	1
3	4383	157.441295449844	1
3	4390	157.703880583802	1
3	4402	157.883235956942	1
3	4423	159.642148698931	1
3	4444	161.496826749162	1
3	4457	162.099797769794	1
3	4475	163.124344506167	1
3	4478	163.193550634768	1
3	4499	163.67830676886	1
3	4521	165.183312867542	1
3	4528	165.389472445576	1
3	4540	165.666924995165	1
3	4546	165.759928129246	1
3	4561	166.005415615144	1
3	4581	166.544423761422	1
3	4606	169.10165563476	1
3	4619	169.730077146505	1
3	4636	170.248578309524	1
3	4639	170.282771649737	1
3	4641	170.296472798378	1
3	4665	171.042558552299	1
3	4683	171.628962064577	1
3	4703	172.726405370825	1
3	4706	172.759075474068	1
3	4723	173.259215775155	1
3	4732	173.503592910305	1
3	4750	174.111198299338	1
3	4756	174.228363324133	1
3	4772	175.223874386939	1
3	4793	176.258667124217	1
3	4813	177.743932441144	1
3	4826	178.320315133305	1
3	4833	178.537152075157	1
3	4852	179.616726072846	1
3	4855	179.647239381281	1
3	4875	180.309909819993	1
3	4882	180.49613423516	1
3	4898	181.562016850115	1
3	4901	181.655694535044	1
3	4924	182.33632010544	1
3	4933	182.570561492021	1
3	4935	182.591792343214	1
3	4950	182.942352812112	1
3	4966	184.018682458474	1
3	4993	184.800178902887	1
3	5006	184.925762583974	1
3	5031	186.449084857018	1
3	5043	186.898511034265	1
3	5050	187.069630028674	1
3	5069	188.129590549595	1
3	5089	189.648014466595	1
3	5102	190.394666446709	1
3	5108	190.496364036155	1
3	5112	190.5510569506	1
3	5126	190.841020982071	1
3	5129	190.858298657989	1
3	5137	190.959050529456	1
3	5151	191.295111792321	1
3	5164	191.446104373763	1
3	5188	191.95425975025	1
3	5191	191.962938075927	1
3	5218	192.612536072851	1
3	5227	192.753902984727	1
3	5241	193.184994108314	1
3	5250	193.429291302507	1
3	5271	194.817467448832	1
3	5281	195.161217082981	1
3	5290	195.349265239942	1
3	5302	195.530138764415	1
3	5307	195.56709321493	1
3	5309	195.57365663481	1
3	5314	195.638673324099	1
3	5350	196.685849916032	1
3	5372	198.892247388187	1
3	5379	199.026903351378	1
3	5390	199.310596970233	1
3	5399	199.434123962424	1
4	12	1.033477525325	1
4	15	1.039065857794	1
4	54	2.76859561748	1
4	61	2.905445473251	1
4	83	3.922467516623	1
4	90	4.159486977546	1
4	105	4.537909405024	1
4	125	5.38557422983	1
4	131	5.518031398752	1
4	142	5.79242566381	1
4	145	5.798157797687	1
4	164	6.271575724019	1
4	176	6.553046595708	1
4	190	7.27939815991	2
4	199	7.536774288867	1
4	213	7.793793941382	1
4	226	8.163572431947	1
4	245	9.191781104633	1
4	256	9.517200370488	1
4	277	10.822016395572	1
4	289	11.227257588005	1
4	292	11.30647691584	1
4	306	11.698435375123	1
4	324	12.302974809507	1
4	337	13.018402254362	1
4	344	13.276051201545	1
4	362	13.899099323141	1
4	380	14.751704861739	1
4	393	15.23507875677	1
4	396	15.245834274718	1
4	404	15.523477164458	1
4	417	15.741036387436	1
4	425	15.911630577714	1
4	443	16.240640375117	2
4	467	18.062693612412	1
4	481	19.101678499412	1
4	492	19.304741697822	1
4	495	19.332398056982	1
4	504	19.455860776156	1
4	517	19.61132052575	2
4	520	19.645357382591	2
4	532	19.818113597066	2
4	558	21.851591427399	3
4	586	22.415900594769	1
4	591	22.484300795118	1
4	602	22.663079906348	1
4	615	22.857480367739	2
4	624	22.958356607091	1
4	626	22.995149116029	2
4	640	23.28526233928	2
4	651	23.412560061301	3
4	671	23.791125365414	1
4	682	24.041261873581	1
4	706	25.493330138225	2
4	732	26.625709959686	1
4	742	26.986100486044	1
4	750	27.198013007239	1
4	772	27.757784825573	1
4	794	29.849354394788	1
4	797	29.914242253335	1
4	800	29.928818702948	2
4	805	30.13103023123	3
4	818	30.347719326639	4
4	824	30.508135227503	4
4	837	30.747927022775	5
4	852	31.170313242344	4
4	866	31.892614348869	5
4	888	32.432196720347	2
4	912	33.829032724227	3
4	918	33.994731813961	2
4	928	34.187335015939	1
4	934	34.266590787493	1
4	949	34.549826848239	1
4	952	34.610238986335	2
4	961	34.767694192161	3
4	981	35.314927018171	4
4	1011	36.122292698117	1
4	1014	36.155231708351	1
4	1036	36.663617197238	1
4	1048	36.989886523467	1
4	1051	37.025468134064	1
4	1074	37.548626066619	1
4	1088	38.011347907685	1
4	1092	38.085604757862	1
4	1111	38.879380728197	1
4	1124	39.460061739553	1
4	1127	39.476327550972	1
4	1129	39.493074431683	2
4	1142	39.796970188061	1
4	1168	40.977111820586	1
4	1182	41.757846677262	1
4	1188	41.886203810718	1
4	1215	44.1231222118	1
4	1231	44.545032365903	1
4	1248	44.983524761274	1
4	1254	45.134927304229	1
4	1257	45.154772110685	1
4	1262	45.254493075102	2
4	1278	45.550170201837	3
4	1288	45.784538028827	1
4	1296	45.888771736834	2
4	1307	46.210677844505	3
4	1320	46.703840876808	4
4	1327	46.848003214967	3
4	1331	46.969241454969	3
4	1369	47.89560674269	2
4	1375	47.977437183376	2
4	1402	48.911880289769	1
4	1412	49.29597117793	1
4	1427	49.93724064321	1
4	1430	49.990135834313	1
4	1441	50.281854194662	1
4	1458	50.938670715402	2
4	1470	51.336246393841	1
4	1492	52.740052150089	1
4	1508	53.232648695648	1
4	1524	54.667799628758	1
4	1534	55.014109143818	1
4	1543	55.248901806094	1
4	1565	55.917849228287	1
4	1578	56.370710425364	1
4	1588	56.675714095754	1
4	1602	57.218043218478	1
4	1615	57.697585936162	1
4	1629	58.054853528603	1
4	1644	58.60211328103	1
4	1654	58.920395186342	1
4	1663	59.210565210906	1
4	1666	59.215021151484	1
4	1671	59.221769538238	2
4	1673	59.256925197633	3
4	1675	59.270053531499	4
4	1690	59.555355701971	2
4	1702	59.713516115182	2
4	1711	59.995887496408	3
4	1732	60.760352835115	4
4	1739	60.863178847155	3
4	1778	62.293169438321	1
4	1789	62.670367339601	1
4	1794	62.732724017412	1
4	1810	63.189728497519	1
4	1826	63.874267881242	1
4	1839	64.51240428282	1
4	1860	66.430378813193	1
4	1867	66.613305753797	1
4	1884	67.299958591882	1
4	1895	67.55904777354	1
4	1914	67.90121389713	1
4	1930	68.766402415934	1
4	1933	68.828911222637	1
4	1949	69.271222896245	2
4	1969	70.034331311716	1
4	1986	70.647296621967	1
4	1989	70.663850519234	1
4	2000	71.021119945135	1
4	2006	71.077602443154	1
4	2034	71.963762249024	1
4	2040	72.099930769904	1
4	2057	72.737625819076	1
4	2064	72.930736267174	1
4	2082	73.936671380647	1
4	2102	75.265097197959	1
4	2108	75.378804633865	1
4	2119	75.697412916879	1
4	2131	75.874704947432	1
4	2144	76.190360538603	2
4	2156	76.513305365922	1
4	2180	77.35609137061	1
4	2190	77.696310018832	1
4	2198	77.834582293111	1
4	2215	78.302416079647	1
4	2227	78.792527419515	1
4	2245	79.646978618827	1
4	2255	80.022030773524	1
4	2268	80.397126456959	1
4	2282	80.860498703181	1
4	2302	82.260615500055	1
4	2308	82.414780401768	1
4	2326	83.057341849105	1
4	2332	83.340575363599	1
4	2339	83.439043490646	1
4	2356	83.792668167249	2
4	2371	84.276099012985	1
4	2382	84.530975779477	1
4	2404	84.944067567692	1
4	2410	85.113542684526	1
4	2428	85.834244592703	1
4	2443	87.105385372955	1
4	2461	87.927002531138	1
4	2468	88.192385403385	1
4	2479	88.369741840781	1
4	2485	88.487714803186	1
4	2495	88.562188004819	2
4	2527	89.859861250625	1
4	2540	90.364335594956	1
4	2547	90.634142005009	1
4	2550	90.638313548797	1
4	2555	90.713558098811	2
4	2581	91.490520122698	2
4	2584	91.543050279733	2
4	2599	91.891705584955	1
4	2623	93.152693461441	1
4	2652	96.077444422331	1
4	2658	96.254236405427	1
4	2681	98.323091425375	2
4	2701	99.822136311746	3
4	2708	99.95092528643	3
4	2718	100.156692759374	4
4	2739	101.105110408094	4
4	2747	101.34923577632	3
4	2767	102.187071465048	4
4	2807	103.401794750128	1
4	2814	103.536476439025	1
4	2831	104.103028213624	1
4	2843	104.637826816415	1
4	2857	105.389438141279	1
4	2878	107.279300015221	1
4	2891	107.873500410223	1
4	2904	108.531080193699	1
4	2924	109.8834612235	1
4	2927	109.933718675057	1
4	2935	110.177735765246	1
4	2951	110.524915833046	1
4	2961	110.613746090568	2
4	2975	110.924029207433	1
4	2983	111.074091958929	1
4	2986	111.074464044645	1
4	2991	111.15629864873	2
4	3023	113.408460818982	3
4	3045	114.043740014013	1
4	3060	115.0940519202	2
4	3075	115.495549586632	1
4	3084	115.617995730792	1
4	3099	115.908507904122	2
4	3113	116.373420740334	1
4	3132	117.199845239691	1
4	3142	117.519130342572	1
4	3161	117.930578984839	1
4	3167	118.153026860799	1
4	3185	118.675230498261	1
4	3195	119.051989649388	1
4	3204	119.304388584146	1
4	3222	119.720389925583	1
4	3234	120.228257473517	1
4	3248	121.124784646256	1
4	3252	121.191170774755	1
4	3254	121.223607169098	2
4	3267	121.50648267025	3
4	3285	121.972650331325	1
4	3301	122.314467935994	1
4	3316	122.664667387206	1
4	3325	122.935123190549	1
4	3332	123.022477708772	1
4	3344	123.239730985908	1
4	3348	123.318318471678	1
4	3371	123.887560304035	1
4	3385	124.395396078721	1
4	3392	124.592731293143	1
4	3407	125.665121034079	2
4	3414	125.77453659429	1
4	3416	125.791245606883	2
4	3430	126.100489491923	1
4	3444	126.37981678505	1
4	3447	126.460659340925	1
4	3479	127.512088421785	1
4	3492	128.148741839261	1
4	3506	128.472357722726	1
4	3520	128.911417998218	1
4	3527	129.140511292761	1
4	3539	129.421200647221	1
4	3550	129.558847050385	1
4	3553	129.58299766455	1
4	3556	129.607714532002	2
4	3573	130.005088241999	1
4	3578	130.101375277972	1
4	3585	130.169015878664	1
4	3605	130.575855230488	2
4	3623	131.008053649002	1
4	3639	131.385655888385	1
4	3645	131.479064938845	1
4	3658	131.871939164834	1
4	3664	131.898877308511	1
4	3674	132.07653862723	1
4	3688	132.395386190139	1
4	3712	133.398199406438	1
4	3719	133.526424342577	1
4	3737	134.464908341623	1
4	3751	135.301305217269	1
4	3765	135.614704462243	1
4	3768	135.688904655301	1
4	3789	136.38477564172	1
4	3792	136.430157897967	1
4	3812	137.195403510356	1
4	3819	137.473118945121	1
4	3831	137.702628513309	1
4	3853	138.294041399904	1
4	3856	138.391631192878	1
4	3869	138.750077057808	1
4	3881	138.895835435211	1
4	3892	139.221125713436	1
4	3903	139.356434013059	1
4	3916	139.56524114251	1
4	3927	139.813945461261	1
4	3948	141.107286729587	1
4	3951	141.110902979417	1
4	3972	142.324733668911	1
4	3978	142.489604729246	1
4	3996	143.104938442878	1