version 3
run FeedbackVersion-17-20240511-20:48:08-11935
attr configname FeedbackVersion
attr datetime 20240511-20:48:08
attr datetimef 20240511-204808
attr experiment FeedbackVersion
attr inifile omnetpp.ini
attr iterationvars $genInterval=0.95
attr iterationvarsd genInterval=0.95
attr iterationvarsf genInterval=0.95-
attr measurement $genInterval=0.95
attr network NetworkFV
attr processid 11935
attr repetition 0
attr replication #0
attr resultdir results
attr runnumber 17
attr seedset 17
itervar genInterval 0.95
config network NetworkFV
config sim-time-limit 200s
config NetworkFV.nodeTx.gen.generationInterval exponential(0.95)
config NetworkFV.nodeTx.gen.packetByteSize 12500
config NetworkFV.queueOne.bufferSize 200
config NetworkFV.nodeRx.queue.bufferSize 200
config NetworkFV.nodeTx.queue.bufferSize 2000000
config NetworkFV.queueZero.bufferSize 200

vector 0 NetworkFV.nodeRx.queue PacketsLost ETV
vector 1 NetworkFV.nodeRx.queue PacketsAsked ETV
vector 2 NetworkFV.queueOne bufferSize ETV
vector 3 NetworkFV.nodeTx.gen packetGen ETV
vector 4 NetworkFV.nodeTx.queue BufferSize ETV
vector 5 NetworkFV.nodeTx.queue PacketsSent ETV
vector 6 NetworkFV.queueZero bufferSize ETV
vector 7 NetworkFV.nodeRx.queue BufferSize ETV
vector 8 NetworkFV.nodeRx.sink Delay ETV
vector 9 NetworkFV.nodeRx.sink packetUsed ETV
0	1	0	1
0	6	0.2	1
0	10	0.4	1
0	17	0.6	1
0	42	1.4004	1
0	49	2.0008	1
0	50	2.301	1
0	51	2.6012	1
0	52	2.9014	1
0	59	3.2016	1
0	79	3.5018	1
0	90	4.1022	1
0	91	4.4024	1
0	92	4.7026	1
0	93	5.0028	1
0	97	5.303	1
0	121	6.2036	1
0	122	6.5038	1
0	123	6.804	1
0	130	7.1042	1
0	137	7.7046	1
0	138	8.0048	1
0	143	8.305	1
0	150	8.6052	1
0	163	8.9054	1
0	177	9.5058	1
0	178	9.806	1
0	188	10.1062	1
0	210	11.0068	1
0	232	11.9074	1
0	239	12.2076	1
0	250	12.808	1
0	259	13.1082	1
0	274	14.0088	1
0	275	14.309	1
0	276	14.6092	1
0	280	14.9094	1
0	304	15.5098	1
0	315	15.797297534219	1
0	317	15.81	1
0	320	16.1102	1
0	321	16.4104	1
0	322	16.7106	1
0	323	17.0108	1
0	328	17.311	1
0	329	17.6112	1
0	330	17.9114	1
0	337	18.2116	1
0	347	18.5118	1
0	348	18.812	1
0	349	19.1122	1
0	353	19.4124	1
0	369	20.0128	1
0	373	20.313	1
0	395	21.2136	1
0	396	21.5138	1
0	397	21.814	1
0	398	22.1142	1
0	409	22.4144	1
0	421	23.0148	1
0	426	23.315	1
0	427	23.6152	1
0	428	23.9154	1
0	432	24.2156	1
0	449	24.5158	1
0	452	24.816	1
0	456	25.1162	1
0	470	25.7166	1
0	471	26.0168	1
0	480	26.317	1
0	499	26.9174	1
0	503	27.2176	1
0	543	28.4184	1
0	572	29.319	1
0	634	31.1202	1
0	647	31.7206	1
0	654	32.321	1
0	661	32.6212	1
0	694	33.822	1
0	695	34.1222	1
0	699	34.4224	1
0	727	35.323	1
0	743	35.9234	1
0	780	37.1242	1
0	788	37.4244	1
0	814	38.325	1
0	821	38.9254	1
0	822	39.2256	1
0	829	39.5258	1
0	836	40.1262	1
0	841	40.4264	1
0	845	40.7266	1
0	882	41.6272	1
0	904	42.2276	1
0	911	42.828	1
0	912	43.1282	1
0	913	43.4284	1
0	914	43.7286	1
0	921	44.0288	1
0	935	44.329	1
0	936	44.6292	1
0	937	44.9294	1
0	938	45.2296	1
0	945	45.5298	1
0	959	46.1302	1
0	969	46.7306	1
0	973	47.0308	1
0	992	47.6312	1
0	996	47.9314	1
0	1032	49.1322	1
0	1041	49.4324	1
0	1064	50.333	1
0	1074	50.9334	1
0	1075	51.2336	1
0	1076	51.5338	1
0	1084	51.834	1
0	1112	52.7346	1
0	1121	53.0348	1
0	1137	53.6352	1
0	1138	53.9354	1
0	1139	54.2356	1
0	1140	54.5358	1
0	1141	54.836	1
0	1142	55.1362	1
0	1147	55.4364	1
0	1148	55.7366	1
0	1155	56.0368	1
0	1165	56.337	1
0	1166	56.6372	1
0	1167	56.9374	1
0	1168	57.2376	1
0	1169	57.5378	1
0	1170	57.838	1
0	1178	58.1382	1
0	1183	58.4384	1
0	1188	58.7386	1
0	1189	59.0388	1
0	1190	59.339	1
0	1194	59.6392	1
0	1208	60.2396	1
0	1209	60.5398	1
0	1210	60.84	1
0	1214	61.1402	1
0	1242	62.0408	1
0	1251	62.341	1
0	1275	63.2416	1
0	1276	63.5418	1
0	1277	63.842	1
0	1278	64.1422	1
0	1279	64.4424	1
0	1280	64.7426	1
0	1285	65.0428	1
0	1292	65.343	1
0	1299	65.9434	1
0	1300	66.2436	1
0	1301	66.5438	1
0	1308	66.844	1
1	1	0	2
1	27	0.831828297639	2
1	59	3.2016	1
1	68	3.307306139616	1
1	81	3.509276433119	2
1	112	5.796434087589	3
1	138	8.0048	1
1	152	8.694241748532	1
1	168	9.195852396449	2
1	198	10.410531847267	3
1	241	12.327500948618	5
1	280	14.9094	2
1	306	15.597297534219	2
1	323	17.0108	1
1	339	18.404613908059	1
1	360	19.693757030633	2
1	386	20.755277904576	3
1	421	23.0148	1
1	443	24.477126296804	1
1	461	25.392798405729	2
1	490	26.596717038501	3
1	526	27.861506972933	5
1	586	29.863421515482	8
1	685	33.301995644144	12
1	780	37.1242	6
1	836	40.1262	2
1	865	41.309005237207	2
1	889	41.904037357421	3
1	921	44.0288	1
1	927	44.077575972062	1
1	947	45.577017161837	2
1	983	47.277738182184	3
1	1023	48.569664670154	5
1	1076	51.5338	2
1	1103	52.318900676785	2
1	1128	53.237837314156	3
1	1142	55.1362	1
1	1157	56.184671127544	1
1	1170	57.838	0
1	1178	58.1382	0
1	1183	58.4384	1
1	1199	59.875021582955	2
1	1233	61.591097161392	3
1	1266	62.820311932172	4
1	1280	64.7426	2
1	1308	66.844	0
2	2	0	1
2	29	0.831828297639	1
2	60	3.2016	1
2	70	3.307306139616	1
2	83	3.509276433119	1
2	114	5.796434087589	1
2	139	8.0048	1
2	154	8.694241748532	1
2	170	9.195852396449	1
2	200	10.410531847267	1
2	243	12.327500948618	1
2	281	14.9094	1
2	308	15.597297534219	1
2	324	17.0108	1
2	341	18.404613908059	1
2	362	19.693757030633	1
2	388	20.755277904576	1
2	422	23.0148	1
2	445	24.477126296804	1
2	463	25.392798405729	1
2	492	26.596717038501	1
2	528	27.861506972933	1
2	588	29.863421515482	1
2	687	33.301995644144	1
2	781	37.1242	1
2	837	40.1262	1
2	867	41.309005237207	1
2	891	41.904037357421	1
2	922	44.0288	1
2	929	44.077575972062	1
2	949	45.577017161837	1
2	985	47.277738182184	1
2	1025	48.569664670154	1
2	1077	51.5338	1
2	1105	52.318900676785	1
2	1130	53.237837314156	1
2	1143	55.1362	1
2	1159	56.184671127544	1
2	1171	57.838	1
2	1179	58.1382	1
2	1184	58.4384	1
2	1201	59.875021582955	1
2	1235	61.591097161392	1
2	1268	62.820311932172	1
2	1281	64.7426	1
2	1309	66.844	1
3	7	0.331628297639	1
3	14	0.52221853896	1
3	36	1.240676724659	1
3	53	3.007106139616	1
3	64	3.209076433119	1
3	94	5.296234087589	1
3	98	5.363033865548	1
3	124	6.924966629262	1
3	144	8.394041748532	1
3	160	8.895652396449	1
3	179	9.910331847267	1
3	185	10.013589785305	1
3	207	10.9776388213	1
3	214	11.213069549287	1
3	233	12.027300948618	1
3	251	12.971218467508	1
3	254	13.009072488968	1
3	277	14.876364683925	1
3	294	15.297097534219	1
3	297	15.337138572399	1
3	331	18.104413908059	1
3	350	19.393557030633	1
3	354	19.452383817287	1
3	370	20.255077904576	1
3	399	22.150717437323	1
3	402	22.183887365618	1
3	429	24.176926296804	1
3	436	24.407515578245	1
3	439	24.457438622538	1
3	453	25.092598405729	1
3	472	26.096517038501	1
3	484	26.399020109108	1
3	500	27.161306972933	1
3	507	27.281738146394	1
3	535	28.146326598342	1
3	547	28.484671319954	1
3	566	29.112369955915	1
3	578	29.563221515482	1
3	592	29.879251297155	1
3	595	29.880319601773	1
3	608	30.216079273615	1
3	628	30.832992734766	1
3	641	31.616187719539	1
3	655	32.322748995931	1
3	667	32.801795644144	1
3	670	32.846988067704	1
3	696	34.323743809285	1
3	706	34.697260268218	1
3	721	35.212271849359	1
3	734	35.704867752827	1
3	740	35.852471788726	1
3	751	36.186921282931	1
3	763	36.342328172918	1
3	785	37.381650521923	1
3	789	37.435635012021	1
3	808	38.128207321281	1
3	823	39.330888427267	1
3	842	40.68033368026	1
3	852	41.008805237207	1
3	861	41.193305891746	1
3	872	41.403837357421	1
3	898	42.086364312509	1
3	915	43.777375972062	1
3	939	45.276817161837	1
3	956	46.07416084209	1
3	970	46.977538182184	1
3	974	47.059169836654	1
3	979	47.121382681307	1
3	993	47.869464670154	1
3	1010	48.287844930965	1
3	1016	48.452303767629	1
3	1033	49.19321687343	1
3	1061	50.266116066763	1
3	1081	51.818700676785	1
3	1088	51.938494548377	1
3	1097	52.178296245144	1
3	1113	52.737637314156	1
3	1149	55.884471127544	1
3	1175	57.964115708569	1
3	1191	59.574821582955	1
3	1211	61.090897161392	1
3	1224	61.468078265669	1
3	1229	61.534957927824	1
3	1243	62.120111932172	1
3	1286	65.196939744959	1
3	1302	66.565405153124	1
3	1320	67.588056705925	1
3	1323	67.636843496652	1
3	1330	68.842017347851	1
3	1339	70.531670178007	1
3	1346	71.824549837366	1
3	1349	71.833990241235	1
3	1359	73.911550175631	1
3	1363	74.139220017292	1
3	1366	74.275837269875	1
3	1370	74.461434691684	1
3	1378	75.886880736614	1
3	1389	78.318126427048	1
3	1397	80.047227617705	1
3	1406	81.850383928159	1
3	1415	83.529865735908	1
3	1419	83.779848643358	1
3	1422	83.807959627173	1
3	1431	85.481272090331	1
3	1435	85.951437001369	1
3	1439	86.274529527416	1
3	1444	86.820706690094	1
3	1457	89.710757315901	1
3	1462	90.409285769299	1
3	1466	90.806369749776	1
3	1471	91.451413255552	1
3	1477	92.14829303241	1
3	1480	92.281060863786	1
3	1491	94.713262658632	1
3	1507	98.664720834003	1
3	1511	98.674936420584	1
3	1514	98.739498592909	1
3	1518	99.18171017574	1
3	1524	100.004217737796	1
3	1532	101.448636247776	1
3	1538	102.274515990414	1
3	1543	102.938222384977	1
3	1556	105.870383978504	1
3	1559	105.928579461331	1
3	1562	106.137535158237	1
3	1566	106.380446758716	1
3	1569	106.463099340265	1
3	1582	109.459038725773	1
3	1592	111.504384221971	1
3	1596	111.675296229556	1
3	1599	111.690325877695	1
3	1603	112.108564441112	1
3	1611	113.616832145707	1
3	1626	117.190261013441	1
3	1634	118.57900816946	1
3	1639	119.149356724076	1
3	1648	121.102620522435	1
3	1655	122.147688874391	1
3	1666	124.502026275462	1
3	1670	124.976432049755	1
3	1674	125.280382637681	1
3	1680	126.277308514172	1
3	1684	126.533510663118	1
3	1691	127.760475589312	1
3	1696	128.113702079863	1
3	1706	130.433447861139	1
3	1713	131.628097278892	1
3	1717	131.927792841618	1
3	1721	132.009834270367	1
3	1725	132.483411392764	1
3	1732	133.552567952184	1
3	1738	134.619879641002	1
3	1747	136.477728045615	1
3	1753	137.114975753089	1
3	1759	138.236518879892	1
3	1765	138.942531562445	1
3	1773	140.403162812505	1
3	1777	140.78545884665	1
3	1781	141.199510435697	1
3	1794	144.233769219953	1
3	1798	144.470041469947	1
3	1802	144.719164456068	1
3	1806	144.986618794407	1
3	1813	146.348082674098	1
3	1820	147.582888582504	1
3	1824	147.747549805421	1
3	1827	147.810512305871	1
3	1843	151.557558994172	1
3	1848	152.131981795448	1
3	1852	152.405747880951	1
3	1857	153.041108489111	1
3	1860	153.20490933035	1
3	1866	154.177789408753	1
3	1872	154.916375262276	1
3	1875	155.023001740364	1
3	1879	155.175803150842	1
3	1884	155.985583823998	1
3	1890	156.879811334795	1
3	1904	159.945991735548	1
3	1909	160.74393395413	1
3	1915	161.432694052789	1
3	1924	163.221348132081	1
3	1929	164.022733250673	1
3	1932	164.039507444897	1
3	1949	168.241741335368	1
3	1954	168.673137809185	1
3	1962	170.37267728705	1
3	1968	171.29741099	1
3	1974	171.95238034551	1
3	1977	172.200125094475	1
3	1981	172.279493911296	1
3	1986	172.872413484012	1
3	1995	174.818305339773	1
3	2001	175.524781571774	1
3	2007	176.710927038567	1
3	2014	177.799258774974	1
3	2021	179.050585930639	1
3	2025	179.177066987489	1
3	2033	180.825425696294	1
3	2038	181.300028901901	1
3	2045	182.598118612997	1
3	2049	182.737819059753	1
3	2053	183.244014356369	1
3	2058	183.837758016239	1
3	2064	184.524607079956	1
3	2069	185.187413246124	1
3	2078	186.968022071355	1
3	2081	187.102872623943	1
3	2090	188.962989246315	1
3	2102	191.56551352263	1
3	2106	191.918717650726	1
3	2112	192.787400708827	1
3	2115	192.908180228583	1
3	2121	193.67506223059	1
3	2126	194.374233819083	1
3	2140	197.538565852	1
3	2145	198.104699212343	1
3	2148	198.261634888427	1
4	8	0.331628297639	1
4	15	0.52221853896	1
4	37	1.240676724659	1
4	54	3.007106139616	1
4	65	3.209076433119	1
4	95	5.296234087589	1
4	99	5.363033865548	1
4	125	6.924966629262	1
4	145	8.394041748532	1
4	161	8.895652396449	1
4	180	9.910331847267	1
4	186	10.013589785305	1
4	208	10.9776388213	1
4	215	11.213069549287	1
4	234	12.027300948618	1
4	252	12.971218467508	1
4	255	13.009072488968	1
4	278	14.876364683925	1
4	295	15.297097534219	1
4	298	15.337138572399	1
4	332	18.104413908059	1
4	351	19.393557030633	1
4	355	19.452383817287	1
4	371	20.255077904576	2
4	400	22.150717437323	1
4	403	22.183887365618	1
4	430	24.176926296804	1
4	437	24.407515578245	1
4	440	24.457438622538	2
4	454	25.092598405729	3
4	473	26.096517038501	3
4	485	26.399020109108	2
4	501	27.161306972933	3
4	508	27.281738146394	2
4	536	28.146326598342	2
4	548	28.484671319954	1
4	567	29.112369955915	1
4	579	29.563221515482	1
4	593	29.879251297155	1
4	596	29.880319601773	1
4	609	30.216079273615	1
4	629	30.832992734766	1
4	642	31.616187719539	1
4	656	32.322748995931	1
4	668	32.801795644144	1
4	671	32.846988067704	1
4	697	34.323743809285	1
4	707	34.697260268218	1
4	722	35.212271849359	1
4	735	35.704867752827	1
4	741	35.852471788726	1
4	752	36.186921282931	1
4	764	36.342328172918	1
4	786	37.381650521923	1
4	790	37.435635012021	1
4	809	38.128207321281	1
4	824	39.330888427267	1
4	843	40.68033368026	1
4	853	41.008805237207	1
4	862	41.193305891746	1
4	873	41.403837357421	2
4	899	42.086364312509	1
4	916	43.777375972062	1
4	940	45.276817161837	1
4	957	46.07416084209	1
4	971	46.977538182184	1
4	975	47.059169836654	1
4	980	47.121382681307	2
4	994	47.869464670154	3
4	1011	48.287844930965	1
4	1017	48.452303767629	2
4	1034	49.19321687343	3
4	1062	50.266116066763	1
4	1082	51.818700676785	1
4	1089	51.938494548377	1
4	1098	52.178296245144	1
4	1114	52.737637314156	2
4	1150	55.884471127544	1
4	1176	57.964115708569	1
4	1192	59.574821582955	2
4	1212	61.090897161392	2
4	1225	61.468078265669	1
4	1230	61.534957927824	2
4	1244	62.120111932172	3
4	1287	65.196939744959	1
4	1303	66.565405153124	1
4	1321	67.588056705925	1
4	1324	67.636843496652	2
4	1331	68.842017347851	3
4	1340	70.531670178007	4
4	1347	71.824549837366	5
4	1350	71.833990241235	6
4	1360	73.911550175631	7
4	1364	74.139220017292	8
4	1367	74.275837269875	9
4	1371	74.461434691684	10
4	1379	75.886880736614	11
4	1390	78.318126427048	12
4	1398	80.047227617705	13
4	1407	81.850383928159	14
4	1416	83.529865735908	15
4	1420	83.779848643358	16
4	1423	83.807959627173	17
4	1432	85.481272090331	18
4	1436	85.951437001369	19
4	1440	86.274529527416	20
4	1445	86.820706690094	21
4	1458	89.710757315901	22
4	1463	90.409285769299	23
4	1467	90.806369749776	24
4	1472	91.451413255552	25
4	1478	92.14829303241	26
4	1481	92.281060863786	27
4	1492	94.713262658632	28
4	1508	98.664720834003	29
4	1512	98.674936420584	30
4	1515	98.739498592909	31
4	1519	99.18171017574	32
4	1525	100.004217737796	33
4	1533	101.448636247776	34
4	1539	102.274515990414	35
4	1544	102.938222384977	36
4	1557	105.870383978504	37
4	1560	105.928579461331	38
4	1563	106.137535158237	39
4	1567	106.380446758716	40
4	1570	106.463099340265	41
4	1583	109.459038725773	42
4	1593	111.504384221971	43
4	1597	111.675296229556	44
4	1600	111.690325877695	45
4	1604	112.108564441112	46
4	1612	113.616832145707	47
4	1627	117.190261013441	48
4	1635	118.57900816946	49
4	1640	119.149356724076	50
4	1649	121.102620522435	51
4	1656	122.147688874391	52
4	1667	124.502026275462	53
4	1671	124.976432049755	54
4	1675	125.280382637681	55
4	1681	126.277308514172	56
4	1685	126.533510663118	57
4	1692	127.760475589312	58
4	1697	128.113702079863	59
4	1707	130.433447861139	60
4	1714	131.628097278892	61
4	1718	131.927792841618	62
4	1722	132.009834270367	63
4	1726	132.483411392764	64
4	1733	133.552567952184	65
4	1739	134.619879641002	66
4	1748	136.477728045615	67
4	1754	137.114975753089	68
4	1760	138.236518879892	69
4	1766	138.942531562445	70
4	1774	140.403162812505	71
4	1778	140.78545884665	72
4	1782	141.199510435697	73
4	1795	144.233769219953	74
4	1799	144.470041469947	75
4	1803	144.719164456068	76
4	1807	144.986618794407	77
4	1814	146.348082674098	78
4	1821	147.582888582504	79
4	1825	147.747549805421	80
4	1828	147.810512305871	81
4	1844	151.557558994172	82
4	1849	152.131981795448	83
4	1853	152.405747880951	84
4	1858	153.041108489111	85
4	1861	153.20490933035	86
4	1867	154.177789408753	87
4	1873	154.916375262276	88
4	1876	155.023001740364	89
4	1880	155.175803150842	90
4	1885	155.985583823998	91
4	1891	156.879811334795	92
4	1905	159.945991735548	93
4	1910	160.74393395413	94
4	1916	161.432694052789	95
4	1925	163.221348132081	96
4	1930	164.022733250673	97
4	1933	164.039507444897	98
4	1950	168.241741335368	99
4	1955	168.673137809185	100
4	1963	170.37267728705	101
4	1969	171.29741099	102
4	1975	171.95238034551	103
4	1978	172.200125094475	104
4	1982	172.279493911296	105
4	1987	172.872413484012	106
4	1996	174.818305339773	107
4	2002	175.524781571774	108
4	2008	176.710927038567	109
4	2015	177.799258774974	110
4	2022	179.050585930639	111
4	2026	179.177066987489	112
4	2034	180.825425696294	113
4	2039	181.300028901901	114
4	2046	182.598118612997	115
4	2050	182.737819059753	116
4	2054	183.244014356369	117
4	2059	183.837758016239	118
4	2065	184.524607079956	119
4	2070	185.187413246124	120
4	2079	186.968022071355	121
4	2082	187.102872623943	122
4	2091	188.962989246315	123
4	2103	191.56551352263	124
4	2107	191.918717650726	125
4	2113	192.787400708827	126
4	2116	192.908180228583	127
4	2122	193.67506223059	128
4	2127	194.374233819083	129
4	2141	197.538565852	130
4	2146	198.104699212343	131
4	2149	198.261634888427	132
5	9	0.331628297639	1
5	16	0.52221853896	2
5	38	1.240676724659	3
5	55	3.007106139616	4
5	66	3.209076433119	5
5	96	5.296234087589	6
5	100	5.396234087589	7
5	126	6.924966629262	8
5	146	8.394041748532	9
5	162	8.895652396449	10
5	181	9.910331847267	11
5	187	10.013589785305	12
5	209	10.9776388213	13
5	216	11.213069549287	14
5	235	12.027300948618	15
5	253	12.971218467508	16
5	256	13.071218467508	17
5	279	14.876364683925	18
5	296	15.297097534219	19
5	299	15.397097534219	20
5	333	18.104413908059	21
5	352	19.393557030633	22
5	372	20.255077904576	23
5	374	20.355077904576	24
5	401	22.150717437323	25
5	404	22.250717437323	26
5	431	24.176926296804	27
5	455	25.092598405729	28
5	474	26.096517038501	29
5	475	26.196517038501	30
5	502	27.161306972933	31
5	504	27.261306972933	32
5	509	27.361306972933	33
5	537	28.146326598342	34
5	538	28.246326598342	35
5	549	28.484671319954	36
5	568	29.112369955915	37
5	580	29.563221515482	38
5	594	29.879251297155	39
5	600	29.979251297155	40
5	610	30.216079273615	41
5	630	30.832992734766	42
5	643	31.616187719539	43
5	657	32.322748995931	44
5	669	32.801795644144	45
5	672	32.901795644144	46
5	698	34.323743809285	47
5	708	34.697260268218	48
5	723	35.212271849359	49
5	736	35.704867752827	50
5	742	35.852471788726	51
5	753	36.186921282931	52
5	765	36.342328172918	53
5	787	37.381650521923	54
5	791	37.481650521923	55
5	810	38.128207321281	56
5	825	39.330888427267	57
5	844	40.68033368026	58
5	854	41.008805237207	59
5	874	41.403837357421	60
5	877	41.503837357421	61
5	900	42.086364312509	62
5	917	43.777375972062	63
5	941	45.276817161837	64
5	958	46.07416084209	65
5	972	46.977538182184	66
5	995	47.869464670154	67
5	997	47.969464670154	68
5	1000	48.069464670154	69
5	1035	49.19321687343	70
5	1036	49.29321687343	71
5	1039	49.39321687343	72
5	1063	50.266116066763	73
5	1083	51.818700676785	74
5	1090	51.938494548377	75
5	1115	52.737637314156	76
5	1116	52.837637314156	77
5	1151	55.884471127544	78
5	1193	59.574821582955	79
5	1213	61.090897161392	80
5	1215	61.190897161392	81
5	1245	62.120111932172	82
5	1246	62.220111932172	83
5	1249	62.320111932172	84
5	1288	65.196939744959	85
5	1304	66.565405153124	86
6	12	0.431728297639	1
6	19	0.62231853896	1
6	40	1.340776724659	1
6	57	3.107206139616	1
6	75	3.309176433119	1
6	101	5.396334087589	1
6	104	5.496334087589	1
6	128	7.025066629262	1
6	148	8.494141748532	1
6	165	8.995752396449	1
6	183	10.010431847267	1
6	190	10.113689785305	1
6	212	11.0777388213	1
6	222	11.313169549287	1
6	237	12.127400948618	1
6	257	13.071318467508	1
6	261	13.171318467508	1
6	286	14.976464683925	1
6	300	15.397197534219	1
6	303	15.497197534219	1
6	335	18.204513908059	1
6	357	19.493657030633	1
6	375	20.355177904576	1
6	378	20.455177904576	1
6	405	22.250817437323	1
6	408	22.350817437323	1
6	434	24.277026296804	1
6	458	25.192698405729	1
6	476	26.196617038501	1
6	479	26.296617038501	1
6	505	27.261406972933	1
6	510	27.361406972933	1
6	513	27.461406972933	1
6	539	28.246426598342	1
6	542	28.346426598342	1
6	553	28.584771319954	1
6	570	29.212469955915	1
6	583	29.663321515482	1
6	601	29.979351297155	1
6	604	30.079351297155	1
6	615	30.316179273615	1
6	632	30.933092734766	1
6	645	31.716287719539	1
6	659	32.422848995931	1
6	673	32.901895644144	1
6	677	33.001895644144	1
6	701	34.423843809285	1
6	713	34.797360268218	1
6	725	35.312371849359	1
6	738	35.804967752827	1
6	745	35.952571788726	1
6	759	36.287021282931	1
6	767	36.442428172918	1
6	792	37.481750521923	1
6	795	37.581750521923	1
6	812	38.228307321281	1
6	827	39.430988427267	1
6	847	40.78043368026	1
6	859	41.108905237207	1
6	878	41.503937357421	1
6	881	41.603937357421	1
6	902	42.186464312509	1
6	919	43.877475972062	1
6	943	45.376917161837	1
6	961	46.17426084209	1
6	977	47.077638182184	1
6	998	47.969564670154	1
6	1001	48.069564670154	1
6	1004	48.169564670154	1
6	1037	49.29331687343	1
6	1040	49.39331687343	1
6	1044	49.49331687343	1
6	1066	50.366216066763	1
6	1086	51.918800676785	1
6	1092	52.038594548377	1
6	1117	52.837737314156	1
6	1120	52.937737314156	1
6	1153	55.984571127544	1
6	1196	59.674921582955	1
6	1216	61.190997161392	1
6	1219	61.290997161392	1
6	1247	62.220211932172	1
6	1250	62.320211932172	1
6	1254	62.420211932172	1
6	1290	65.297039744959	1
6	1306	66.665505153124	1
7	21	0.631828297639	1
7	27	0.831828297639	1
7	44	1.540876724659	1
7	68	3.307306139616	1
7	81	3.509276433119	1
7	106	5.596434087589	1
7	112	5.796434087589	1
7	132	7.225166629262	1
7	152	8.694241748532	1
7	168	9.195852396449	1
7	192	10.210531847267	1
7	198	10.410531847267	1
7	218	11.2778388213	1
7	227	11.513269549287	1
7	241	12.327500948618	1
7	263	13.271418467508	1
7	269	13.471418467508	1
7	289	15.176564683925	1
7	306	15.597297534219	1
7	315	15.797297534219	1
7	339	18.404613908059	1
7	360	19.693757030633	1
7	380	20.555277904576	1
7	386	20.755277904576	1
7	411	22.450917437323	1
7	416	22.650917437323	1
7	443	24.477126296804	1
7	461	25.392798405729	1
7	482	26.396717038501	1
7	490	26.596717038501	1
7	514	27.461506972933	1
7	520	27.661506972933	1
7	526	27.861506972933	1
7	545	28.446526598342	1
7	555	28.646526598342	1
7	561	28.846526598342	1
7	574	29.412569955915	1
7	586	29.863421515482	1
7	606	30.179451297155	1
7	617	30.379451297155	1
7	623	30.579451297155	1
7	636	31.133192734766	1
7	649	31.916387719539	1
7	663	32.622948995931	1
7	679	33.101995644144	1
7	685	33.301995644144	1
7	704	34.623943809285	1
7	716	34.997460268218	1
7	729	35.512471849359	1
7	747	36.005067752827	1
7	755	36.205067752827	1
7	769	36.487121282931	1
7	775	36.687121282931	1
7	797	37.681850521923	1
7	803	37.881850521923	1
7	816	38.428407321281	1
7	831	39.631088427267	1
7	850	40.98053368026	1
7	865	41.309005237207	1
7	884	41.704037357421	1
7	889	41.904037357421	1
7	906	42.386564312509	1
7	927	44.077575972062	1
7	947	45.577017161837	1
7	964	46.37436084209	1
7	983	47.277738182184	1
7	1005	48.169664670154	1
7	1014	48.369664670154	1
7	1023	48.569664670154	1
7	1045	49.49341687343	1
7	1050	49.69341687343	1
7	1056	49.89341687343	1
7	1069	50.566316066763	1
7	1094	52.118900676785	1
7	1103	52.318900676785	1
7	1123	53.037837314156	1
7	1128	53.237837314156	1
7	1157	56.184671127544	1
7	1199	59.875021582955	1
7	1221	61.391097161392	1
7	1233	61.591097161392	1
7	1255	62.420311932172	1
7	1260	62.620311932172	1
7	1266	62.820311932172	1
7	1294	65.497139744959	1
7	1314	66.865605153124	1
8	23	0.731828297639	0.4002
8	33	0.931828297639	0.409609758679
8	46	1.640876724659	0.4002
8	77	3.407306139616	0.4002
8	87	3.609276433119	0.4002
8	109	5.696434087589	0.4002
8	118	5.896434087589	0.533400222041
8	134	7.325166629262	0.4002
8	158	8.794241748532	0.4002
8	175	9.295852396449	0.4002
8	194	10.310531847267	0.4002
8	204	10.510531847267	0.496942061962
8	224	11.3778388213	0.4002
8	230	11.613269549287	0.4002
8	247	12.427500948618	0.4002
8	265	13.371418467508	0.4002
8	271	13.571418467508	0.56234597854
8	292	15.276564683925	0.4002
8	312	15.697297534219	0.4002
8	318	15.897297534219	0.56015896182
8	345	18.504613908059	0.4002
8	367	19.793757030633	0.4002
8	383	20.655277904576	1.202894087289
8	392	20.855277904576	0.6002
8	413	22.550917437323	0.4002
8	419	22.750917437323	0.567030071705
8	450	24.577126296804	0.4002
8	468	25.492798405729	1.085282827484
8	487	26.496717038501	2.039278415963
8	497	26.696717038501	1.604118632772
8	517	27.561506972933	1.464989934432
8	522	27.761506972933	1.362486863825
8	532	27.961506972933	0.8002
8	550	28.546526598342	1.264788451948
8	558	28.746526598342	0.6002
8	563	28.946526598342	0.461855278388
8	576	29.512569955915	0.4002
8	598	29.963421515482	0.4002
8	612	30.279451297155	0.4002
8	619	30.479451297155	0.599131695382
8	625	30.679451297155	0.46337202354
8	638	31.233192734766	0.4002
8	651	32.016387719539	0.4002
8	665	32.722948995931	0.4002
8	681	33.201995644144	0.4002
8	691	33.401995644144	0.55500757644
8	710	34.723943809285	0.4002
8	719	35.097460268218	0.4002
8	731	35.612471849359	0.4002
8	749	36.105067752827	0.4002
8	761	36.305067752827	0.452595964101
8	772	36.587121282931	0.4002
8	777	36.787121282931	0.444793110013
8	800	37.781850521923	0.4002
8	805	37.981850521923	0.546215509902
8	818	38.528407321281	0.4002
8	833	39.731088427267	0.4002
8	856	41.08053368026	0.4002
8	875	41.409005237207	0.4002
8	886	41.804037357421	0.610731465675
8	896	42.004037357421	0.6002
8	908	42.486564312509	0.4002
8	933	44.177575972062	0.4002
8	953	45.677017161837	0.4002
8	967	46.47436084209	0.4002
8	990	47.377738182184	0.4002
8	1008	48.269664670154	1.2104948335
8	1019	48.469664670154	1.348281988847
8	1029	48.669664670154	0.8002
8	1047	49.59341687343	1.305571942465
8	1053	49.79341687343	1.341113105801
8	1058	49.99341687343	0.8002
8	1072	50.666316066763	0.4002
8	1100	52.218900676785	0.4002
8	1109	52.418900676785	0.480406128408
8	1125	53.137837314156	0.959541069012
8	1135	53.337837314156	0.6002
8	1163	56.284671127544	0.4002
8	1206	59.975021582955	2.010905874386
8	1227	61.491097161392	1.916275578437
8	1239	61.691097161392	0.6002
8	1257	62.520311932172	1.052233666503
8	1263	62.720311932172	1.185354004348
8	1272	62.920311932172	0.8002
8	1296	65.597139744959	0.4002
8	1316	66.965605153124	0.4002
9	23	0.731828297639	1
9	33	0.931828297639	1
9	46	1.640876724659	1
9	77	3.407306139616	1
9	87	3.609276433119	1
9	109	5.696434087589	1
9	118	5.896434087589	1
9	134	7.325166629262	1
9	158	8.794241748532	1
9	175	9.295852396449	1
9	194	10.310531847267	1
9	204	10.510531847267	1
9	224	11.3778388213	1
9	230	11.613269549287	1
9	247	12.427500948618	1
9	265	13.371418467508	1
9	271	13.571418467508	1
9	292	15.276564683925	1
9	312	15.697297534219	1
9	318	15.897297534219	1
9	345	18.504613908059	1
9	367	19.793757030633	1
9	383	20.655277904576	1
9	392	20.855277904576	1
9	413	22.550917437323	1
9	419	22.750917437323	1
9	450	24.577126296804	1
9	468	25.492798405729	1
9	487	26.496717038501	1
9	497	26.696717038501	1
9	517	27.561506972933	1
9	522	27.761506972933	1
9	532	27.961506972933	1
9	550	28.546526598342	1
9	558	28.746526598342	1
9	563	28.946526598342	1
9	576	29.512569955915	1
9	598	29.963421515482	1
9	612	30.279451297155	1
9	619	30.479451297155	1
9	625	30.679451297155	1
9	638	31.233192734766	1
9	651	32.016387719539	1
9	665	32.722948995931	1
9	681	33.201995644144	1
9	691	33.401995644144	1
9	710	34.723943809285	1
9	719	35.097460268218	1
9	731	35.612471849359	1
9	749	36.105067752827	1
9	761	36.305067752827	1
9	772	36.587121282931	1
9	777	36.787121282931	1
9	800	37.781850521923	1
9	805	37.981850521923	1
9	818	38.528407321281	1
9	833	39.731088427267	1
9	856	41.08053368026	1
9	875	41.409005237207	1
9	886	41.804037357421	1
9	896	42.004037357421	1
9	908	42.486564312509	1
9	933	44.177575972062	1
9	953	45.677017161837	1
9	967	46.47436084209	1
9	990	47.377738182184	1
9	1008	48.269664670154	1
9	1019	48.469664670154	1
9	1029	48.669664670154	1
9	1047	49.59341687343	1
9	1053	49.79341687343	1
9	1058	49.99341687343	1
9	1072	50.666316066763	1
9	1100	52.218900676785	1
9	1109	52.418900676785	1
9	1125	53.137837314156	1
9	1135	53.337837314156	1
9	1163	56.284671127544	1
9	1206	59.975021582955	1
9	1227	61.491097161392	1
9	1239	61.691097161392	1
9	1257	62.520311932172	1
9	1263	62.720311932172	1
9	1272	62.920311932172	1
9	1296	65.597139744959	1
9	1316	66.965605153124	1

