version 3
run FeedbackVersion-15-20240511-20:48:08-11935
attr configname FeedbackVersion
attr datetime 20240511-20:48:08
attr datetimef 20240511-204808
attr experiment FeedbackVersion
attr inifile omnetpp.ini
attr iterationvars $genInterval=0.85
attr iterationvarsd genInterval=0.85
attr iterationvarsf genInterval=0.85-
attr measurement $genInterval=0.85
attr network NetworkFV
attr processid 11935
attr repetition 0
attr replication #0
attr resultdir results
attr runnumber 15
attr seedset 15
itervar genInterval 0.85
config network NetworkFV
config sim-time-limit 200s
config NetworkFV.nodeTx.gen.generationInterval exponential(0.85)
config NetworkFV.nodeTx.gen.packetByteSize 12500
config NetworkFV.queueOne.bufferSize 200
config NetworkFV.nodeRx.queue.bufferSize 200
config NetworkFV.nodeTx.queue.bufferSize 2000000
config NetworkFV.queueZero.bufferSize 200

vector 0 NetworkFV.nodeRx.queue PacketsLost ETV
vector 1 NetworkFV.nodeRx.queue PacketsAsked ETV
vector 2 NetworkFV.queueOne bufferSize ETV
vector 3 NetworkFV.nodeTx.gen packetGen ETV
vector 4 NetworkFV.nodeTx.queue BufferSize ETV
vector 5 NetworkFV.nodeTx.queue PacketsSent ETV
vector 6 NetworkFV.queueZero bufferSize ETV
vector 7 NetworkFV.nodeRx.queue BufferSize ETV
vector 8 NetworkFV.nodeRx.sink Delay ETV
vector 9 NetworkFV.nodeRx.sink packetUsed ETV
0	1	0	1
0	6	0.2	1
0	7	0.4	1
0	8	0.6	1
0	9	0.8	1
0	10	1	1
0	11	1.2	1
0	16	1.4	1
0	17	1.6	1
0	24	1.8	1
0	39	2.3002	1
0	40	2.6004	1
0	41	2.9006	1
0	48	3.2008	1
0	62	3.8012	1
0	71	4.1014	1
0	123	5.6024	1
0	124	5.9026	1
0	131	6.2028	1
0	150	7.1034	1
0	151	7.4036	1
0	152	7.7038	1
0	157	8.004	1
0	158	8.3042	1
0	165	8.6044	1
0	180	9.2048	1
0	215	10.4056	1
0	216	10.7058	1
0	223	11.006	1
0	242	11.9066	1
0	243	12.2068	1
0	253	12.507	1
0	273	12.8072	1
0	287	13.4076	1
0	288	13.7078	1
0	289	14.008	1
0	290	14.3082	1
0	294	14.6084	1
0	316	15.509	1
0	317	15.8092	1
0	318	16.1094	1
0	319	16.4096	1
0	323	16.7098	1
0	367	17.9106	1
0	368	18.2108	1
0	369	18.511	1
0	376	18.8112	1
0	403	20.012	1
0	404	20.3122	1
0	409	20.6124	1
0	410	20.9126	1
0	417	21.2128	1
0	424	21.8132	1
0	425	22.1134	1
0	426	22.4136	1
0	431	22.7138	1
0	432	23.014	1
0	433	23.3142	1
0	434	23.6144	1
0	435	23.9146	1
0	436	24.2148	1
0	441	24.515	1
0	449	24.8152	1
0	454	25.1154	1
0	459	25.4156	1
0	464	25.7158	1
0	468	26.016	1
0	479	26.3162	1
0	488	26.6164	1
0	502	27.2168	1
0	503	27.517	1
0	504	27.8172	1
0	505	28.1174	1
0	516	28.4176	1
0	532	29.018	1
0	533	29.3182	1
0	544	29.6184	1
0	586	30.8192	1
0	630	32.3202	1
0	631	32.6204	1
0	632	32.9206	1
0	633	33.2208	1
0	634	33.521	1
0	639	33.8212	1
0	640	34.1214	1
0	641	34.4216	1
0	642	34.7218	1
0	643	35.022	1
0	644	35.3222	1
0	649	35.6224	1
0	650	35.9226	1
0	651	36.2228	1
0	652	36.523	1
0	653	36.8232	1
0	660	37.1234	1
1	1	0	2
1	11	1.2	1
1	26	1.906078513779	0
1	32	2	1
1	53	3.333870692803	2
1	83	4.462082484723	3
1	114	5.190980715754	5
1	152	7.7038	2
1	182	9.378167594149	2
1	206	9.910038300807	3
1	253	12.507	1
1	259	12.568956754268	1
1	278	12.872311188515	2
1	307	15.066949339626	4
1	358	17.589002195025	6
1	404	20.3122	3
1	426	22.4136	1
1	436	24.2148	0
1	441	24.515	0
1	449	24.8152	0
1	454	25.1154	0
1	459	25.4156	1
1	473	26.270233720731	1
1	493	26.736762648391	2
1	523	28.661790345905	4
1	567	30.257659992154	6
1	634	33.521	3
1	644	35.3222	1
1	660	37.1234	0
2	2	0	1
2	12	1.2	1
2	28	1.906078513779	1
2	33	2	1
2	55	3.333870692803	1
2	85	4.462082484723	1
2	116	5.190980715754	1
2	153	7.7038	1
2	184	9.378167594149	1
2	208	9.910038300807	1
2	254	12.507	1
2	261	12.568956754268	1
2	280	12.872311188515	1
2	309	15.066949339626	1
2	360	17.589002195025	1
2	405	20.3122	1
2	427	22.4136	1
2	437	24.2148	1
2	442	24.515	1
2	450	24.8152	1
2	455	25.1154	1
2	460	25.4156	1
2	475	26.270233720731	1
2	495	26.736762648391	1
2	525	28.661790345905	1
2	569	30.257659992154	1
2	635	33.521	1
2	645	35.3222	1
2	661	37.1234	1
3	18	1.605878513779	1
3	42	3.033670692803	1
3	49	3.201210290764	1
3	63	3.961882484723	1
3	66	4.009394710251	1
3	72	4.109390969504	1
3	89	4.490780715754	1
3	125	5.941829032776	1
3	132	6.215645291345	1
3	159	8.43619798228	1
3	172	9.077967594149	1
3	175	9.099446788226	1
3	188	9.409838300807	1
3	217	10.878338981365	1
3	227	11.186963270937	1
3	244	12.268756754268	1
3	250	12.369475149015	1
3	265	12.572111188515	1
3	274	12.816526499502	1
3	291	14.566749339626	1
3	320	16.688802195025	1
3	324	16.716882145584	1
3	331	16.977598145022	1
3	354	17.570209466339	1
3	370	18.645498561612	1
3	390	19.325899186667	1
3	411	21.032521625805	1
3	446	24.571378271256	1
3	465	25.970033720731	1
3	482	26.436562648391	1
3	489	26.63751923806	1
3	506	28.161590345905	1
3	512	28.317151760721	1
3	534	29.357459992154	1
3	537	29.398117476146	1
3	576	30.664686980147	1
3	579	30.698874337261	1
3	584	30.804254057951	1
3	594	30.994171352129	1
3	610	31.378395852939	1
3	654	36.930299494772	1
3	674	38.404231874304	1
3	678	38.8007305636	1
3	682	39.055699146062	1
3	689	40.270557205015	1
3	692	40.34829734396	1
3	697	40.893534431057	1
3	709	43.695849203574	1
3	714	44.301702893314	1
3	718	44.573492030696	1
3	730	47.039444718979	1
3	733	47.259418963021	1
3	737	47.357944390632	1
3	741	47.909957975826	1
3	746	48.441771252279	1
3	750	48.802975431287	1
3	754	48.93271345747	1
3	758	49.325895808839	1
3	763	49.982899534142	1
3	770	51.090544513548	1
3	774	51.392503166449	1
3	778	51.759342872185	1
3	783	52.415236075107	1
3	789	53.179875131788	1
3	795	54.111049907646	1
3	803	55.573772537167	1
3	807	55.958885291188	1
3	816	57.613377975369	1
3	822	58.442603526876	1
3	827	59.197939680237	1
3	833	60.072801462541	1
3	841	61.562490417237	1
3	845	62.025481872034	1
3	852	63.034179821921	1
3	856	63.472987506021	1
3	860	63.808376674825	1
3	865	64.229114455979	1
3	868	64.351106726006	1
3	873	64.79412253215	1
3	881	66.371501366936	1
3	884	66.442067299356	1
3	890	67.369217652778	1
3	893	67.418951159455	1
3	900	68.541510031612	1
3	903	68.610843697476	1
3	909	69.366442823329	1
3	915	70.377660887292	1
3	919	70.529916464039	1
3	922	70.555070115585	1
3	927	71.116696014466	1
3	932	71.705008667455	1
3	938	72.815615677817	1
3	942	72.936566097793	1
3	949	74.233256531287	1
3	952	74.259809273037	1
3	956	74.513128984383	1
3	962	75.380327892382	1
3	965	75.516778409647	1
3	970	76.018777579488	1
3	973	76.064429408631	1
3	987	79.186706728241	1
3	991	79.539896418576	1
3	995	79.880005456222	1
3	999	80.08545952709	1
3	1002	80.270284267542	1
3	1009	81.506582795929	1
3	1016	82.485918209089	1
3	1020	83.015538689195	1
3	1025	83.383142348136	1
3	1035	85.593954125707	1
3	1042	86.847016462229	1
3	1046	87.198078495204	1
3	1054	88.531944165421	1
3	1057	88.626562570081	1
3	1062	89.125309793564	1
3	1070	90.855248996201	1
3	1074	91.121389913547	1
3	1082	92.564828381921	1
3	1085	92.585393939147	1
3	1089	92.793660075156	1
3	1093	93.188190024913	1
3	1097	93.503308441058	1
3	1101	93.590724517018	1
3	1106	94.419573100442	1
3	1113	95.524742596072	1
3	1118	96.182756408328	1
3	1123	96.705640559572	1
3	1133	98.760225868012	1
3	1138	99.384979299679	1
3	1142	99.665356842976	1
3	1148	100.646099975422	1
3	1154	101.419955713098	1
3	1158	101.890762405198	1
3	1162	102.053854587191	1
3	1167	102.840114173705	1
3	1173	103.760937094871	1
3	1181	105.236889254506	1
3	1187	105.919113051779	1
3	1191	106.430171387472	1
3	1195	106.767763593709	1
3	1205	108.628215777992	1
3	1209	109.169778647502	1
3	1213	109.381406306458	1
3	1216	109.438159734831	1
3	1220	109.534184332305	1
3	1225	110.340816730603	1
3	1228	110.351087134656	1
3	1236	111.618894873637	1
3	1246	113.744168257669	1
3	1258	116.573799669686	1
3	1264	117.4341340975	1
3	1282	121.977108612186	1
3	1286	122.188041493096	1
3	1290	122.556880689563	1
3	1295	123.231001572473	1
3	1301	124.020181772688	1
3	1311	126.175590337135	1
3	1318	127.19093078061	1
3	1326	128.962996608465	1
3	1330	129.188628469739	1
3	1334	129.304651989616	1
3	1337	129.441081497354	1
3	1341	129.748703506029	1
3	1344	129.794938427465	1
3	1348	130.092419923608	1
3	1359	132.478235043462	1
3	1365	133.193842342154	1
3	1368	133.327735038575	1
3	1375	134.484001361419	1
3	1381	135.300936759865	1
3	1385	135.641361961041	1
3	1389	136.037449263753	1
3	1395	136.833148497043	1
3	1401	137.737970243441	1
3	1406	138.354220111175	1
3	1410	138.639565503322	1
3	1420	140.784320194879	1
3	1425	141.326680457373	1
3	1428	141.51780574906	1
3	1431	141.559931742288	1
3	1434	141.561330936617	1
3	1440	142.452871472344	1
3	1444	142.516142139902	1
3	1450	143.505956535396	1
3	1454	143.969699628708	1
3	1466	146.682084579926	1
3	1471	147.269421205809	1
3	1475	147.368174432934	1
3	1480	148.092997658624	1
3	1488	149.489705213289	1
3	1497	151.294578151354	1
3	1500	151.40424203008	1
3	1504	151.594679354613	1
3	1512	153.160754734752	1
3	1517	153.625501053939	1
3	1520	153.813761494413	1
3	1531	156.102245759064	1
3	1541	158.206999802103	1
3	1545	158.59072570208	1
3	1550	159.205723951615	1
3	1553	159.218574127681	1
3	1560	160.489661528798	1
3	1570	162.444544998516	1
3	1576	163.289506658723	1
3	1581	164.101725762824	1
3	1585	164.306924759288	1
3	1598	167.314619104679	1
3	1603	167.790229647199	1
3	1609	168.616308251244	1
3	1619	170.748450830511	1
3	1629	173.088485126093	1
3	1636	174.088814107951	1
3	1641	174.865622968316	1
3	1648	175.82568772446	1
3	1651	175.953174580418	1
3	1658	177.062638938043	1
3	1664	178.026851865738	1
3	1667	178.103067679395	1
3	1672	178.774912063485	1
3	1678	179.669044184116	1
3	1681	179.676766888843	1
3	1687	180.475063562972	1
3	1694	181.742102665618	1
3	1698	182.075038570093	1
3	1702	182.185073992411	1
3	1705	182.341497885991	1
3	1710	182.960769624078	1
3	1714	183.25986806256	1
3	1720	184.191360189541	1
3	1723	184.192289429402	1
3	1730	185.41571776198	1
3	1734	185.658735009925	1
3	1745	188.062676951995	1
3	1752	189.051515243984	1
3	1755	189.164033988484	1
3	1759	189.350087191814	1
3	1762	189.550446583859	1
3	1771	191.161534852817	1
3	1775	191.548037929519	1
3	1783	193.199050104431	1
3	1788	193.635079218882	1
3	1794	194.67877738825	1
3	1800	195.436647114943	1
3	1805	196.092024422169	1
4	19	1.605878513779	1
4	43	3.033670692803	1
4	50	3.201210290764	1
4	64	3.961882484723	2
4	67	4.009394710251	2
4	73	4.109390969504	2
4	90	4.490780715754	3
4	126	5.941829032776	1
4	133	6.215645291345	1
4	160	8.43619798228	1
4	173	9.077967594149	1
4	176	9.099446788226	1
4	189	9.409838300807	2
4	218	10.878338981365	1
4	228	11.186963270937	1
4	245	12.268756754268	1
4	251	12.369475149015	1
4	266	12.572111188515	2
4	275	12.816526499502	2
4	292	14.566749339626	3
4	321	16.688802195025	2
4	325	16.716882145584	2
4	332	16.977598145022	1
4	355	17.570209466339	1
4	371	18.645498561612	2
4	391	19.325899186667	1
4	412	21.032521625805	1
4	447	24.571378271256	1
4	466	25.970033720731	2
4	483	26.436562648391	2
4	490	26.63751923806	2
4	507	28.161590345905	3
4	513	28.317151760721	2
4	535	29.357459992154	3
4	538	29.398117476146	3
4	577	30.664686980147	1
4	580	30.698874337261	1
4	585	30.804254057951	1
4	595	30.994171352129	1
4	611	31.378395852939	1
4	655	36.930299494772	1
4	675	38.404231874304	1
4	679	38.8007305636	2
4	683	39.055699146062	3
4	690	40.270557205015	4
4	693	40.34829734396	5
4	698	40.893534431057	6
4	710	43.695849203574	7
4	715	44.301702893314	8
4	719	44.573492030696	9
4	731	47.039444718979	10
4	734	47.259418963021	11
4	738	47.357944390632	12
4	742	47.909957975826	13
4	747	48.441771252279	14
4	751	48.802975431287	15
4	755	48.93271345747	16
4	759	49.325895808839	17
4	764	49.982899534142	18
4	771	51.090544513548	19
4	775	51.392503166449	20
4	779	51.759342872185	21
4	784	52.415236075107	22
4	790	53.179875131788	23
4	796	54.111049907646	24
4	804	55.573772537167	25
4	808	55.958885291188	26
4	817	57.613377975369	27
4	823	58.442603526876	28
4	828	59.197939680237	29
4	834	60.072801462541	30
4	842	61.562490417237	31
4	846	62.025481872034	32
4	853	63.034179821921	33
4	857	63.472987506021	34
4	861	63.808376674825	35
4	866	64.229114455979	36
4	869	64.351106726006	37
4	874	64.79412253215	38
4	882	66.371501366936	39
4	885	66.442067299356	40
4	891	67.369217652778	41
4	894	67.418951159455	42
4	901	68.541510031612	43
4	904	68.610843697476	44
4	910	69.366442823329	45
4	916	70.377660887292	46
4	920	70.529916464039	47
4	923	70.555070115585	48
4	928	71.116696014466	49
4	933	71.705008667455	50
4	939	72.815615677817	51
4	943	72.936566097793	52
4	950	74.233256531287	53
4	953	74.259809273037	54
4	957	74.513128984383	55
4	963	75.380327892382	56
4	966	75.516778409647	57
4	971	76.018777579488	58
4	974	76.064429408631	59
4	988	79.186706728241	60
4	992	79.539896418576	61
4	996	79.880005456222	62
4	1000	80.08545952709	63
4	1003	80.270284267542	64
4	1010	81.506582795929	65
4	1017	82.485918209089	66
4	1021	83.015538689195	67
4	1026	83.383142348136	68
4	1036	85.593954125707	69
4	1043	86.847016462229	70
4	1047	87.198078495204	71
4	1055	88.531944165421	72
4	1058	88.626562570081	73
4	1063	89.125309793564	74
4	1071	90.855248996201	75
4	1075	91.121389913547	76
4	1083	92.564828381921	77
4	1086	92.585393939147	78
4	1090	92.793660075156	79
4	1094	93.188190024913	80
4	1098	93.503308441058	81
4	1102	93.590724517018	82
4	1107	94.419573100442	83
4	1114	95.524742596072	84
4	1119	96.182756408328	85
4	1124	96.705640559572	86
4	1134	98.760225868012	87
4	1139	99.384979299679	88
4	1143	99.665356842976	89
4	1149	100.646099975422	90
4	1155	101.419955713098	91
4	1159	101.890762405198	92
4	1163	102.053854587191	93
4	1168	102.840114173705	94
4	1174	103.760937094871	95
4	1182	105.236889254506	96
4	1188	105.919113051779	97
4	1192	106.430171387472	98
4	1196	106.767763593709	99
4	1206	108.628215777992	100
4	1210	109.169778647502	101
4	1214	109.381406306458	102
4	1217	109.438159734831	103
4	1221	109.534184332305	104
4	1226	110.340816730603	105
4	1229	110.351087134656	106
4	1237	111.618894873637	107
4	1247	113.744168257669	108
4	1259	116.573799669686	109
4	1265	117.4341340975	110
4	1283	121.977108612186	111
4	1287	122.188041493096	112
4	1291	122.556880689563	113
4	1296	123.231001572473	114
4	1302	124.020181772688	115
4	1312	126.175590337135	116
4	1319	127.19093078061	117
4	1327	128.962996608465	118
4	1331	129.188628469739	119
4	1335	129.304651989616	120
4	1338	129.441081497354	121
4	1342	129.748703506029	122
4	1345	129.794938427465	123
4	1349	130.092419923608	124
4	1360	132.478235043462	125
4	1366	133.193842342154	126
4	1369	133.327735038575	127
4	1376	134.484001361419	128
4	1382	135.300936759865	129
4	1386	135.641361961041	130
4	1390	136.037449263753	131
4	1396	136.833148497043	132
4	1402	137.737970243441	133
4	1407	138.354220111175	134
4	1411	138.639565503322	135
4	1421	140.784320194879	136
4	1426	141.326680457373	137
4	1429	141.51780574906	138
4	1432	141.559931742288	139
4	1435	141.561330936617	140
4	1441	142.452871472344	141
4	1445	142.516142139902	142
4	1451	143.505956535396	143
4	1455	143.969699628708	144
4	1467	146.682084579926	145
4	1472	147.269421205809	146
4	1476	147.368174432934	147
4	1481	148.092997658624	148
4	1489	149.489705213289	149
4	1498	151.294578151354	150
4	1501	151.40424203008	151
4	1505	151.594679354613	152
4	1513	153.160754734752	153
4	1518	153.625501053939	154
4	1521	153.813761494413	155
4	1532	156.102245759064	156
4	1542	158.206999802103	157
4	1546	158.59072570208	158
4	1551	159.205723951615	159
4	1554	159.218574127681	160
4	1561	160.489661528798	161
4	1571	162.444544998516	162
4	1577	163.289506658723	163
4	1582	164.101725762824	164
4	1586	164.306924759288	165
4	1599	167.314619104679	166
4	1604	167.790229647199	167
4	1610	168.616308251244	168
4	1620	170.748450830511	169
4	1630	173.088485126093	170
4	1637	174.088814107951	171
4	1642	174.865622968316	172
4	1649	175.82568772446	173
4	1652	175.953174580418	174
4	1659	177.062638938043	175
4	1665	178.026851865738	176
4	1668	178.103067679395	177
4	1673	178.774912063485	178
4	1679	179.669044184116	179
4	1682	179.676766888843	180
4	1688	180.475063562972	181
4	1695	181.742102665618	182
4	1699	182.075038570093	183
4	1703	182.185073992411	184
4	1706	182.341497885991	185
4	1711	182.960769624078	186
4	1715	183.25986806256	187
4	1721	184.191360189541	188
4	1724	184.192289429402	189
4	1731	185.41571776198	190
4	1735	185.658735009925	191
4	1746	188.062676951995	192
4	1753	189.051515243984	193
4	1756	189.164033988484	194
4	1760	189.350087191814	195
4	1763	189.550446583859	196
4	1772	191.161534852817	197
4	1776	191.548037929519	198
4	1784	193.199050104431	199
4	1789	193.635079218882	200
4	1795	194.67877738825	201
4	1801	195.436647114943	202
4	1806	196.092024422169	203
5	20	1.605878513779	1
5	44	3.033670692803	2
5	65	3.961882484723	3
5	68	4.061882484723	4
5	91	4.490780715754	5
5	94	4.590780715754	6
5	97	4.690780715754	7
5	127	5.941829032776	8
5	134	6.215645291345	9
5	161	8.43619798228	10
5	174	9.077967594149	11
5	190	9.409838300807	12
5	194	9.509838300807	13
5	219	10.878338981365	14
5	229	11.186963270937	15
5	246	12.268756754268	16
5	267	12.572111188515	17
5	293	14.566749339626	18
5	295	14.666749339626	19
5	322	16.688802195025	20
5	326	16.788802195025	21
5	329	16.888802195025	22
5	333	16.988802195025	23
5	372	18.645498561612	24
5	373	18.745498561612	25
5	392	19.325899186667	26
5	413	21.032521625805	27
5	467	25.970033720731	28
5	484	26.436562648391	29
5	508	28.161590345905	30
5	509	28.261590345905	31
5	536	29.357459992154	32
5	539	29.457459992154	33
5	542	29.557459992154	34
5	545	29.657459992154	35
5	578	30.664686980147	36
5	581	30.764686980147	37
5	587	30.864686980147	38
5	596	30.994171352129	39
5	612	31.378395852939	40
5	656	36.930299494772	41
6	22	1.705978513779	1
6	46	3.133770692803	1
6	69	4.061982484723	1
6	75	4.161982484723	1
6	95	4.590880715754	1
6	98	4.690880715754	1
6	102	4.790880715754	1
6	129	6.041929032776	1
6	139	6.315745291345	1
6	163	8.53629798228	1
6	178	9.178067594149	1
6	195	9.509938300807	1
6	198	9.609938300807	1
6	221	10.978438981365	1
6	233	11.287063270937	1
6	248	12.368856754268	1
6	271	12.672211188515	1
6	296	14.666849339626	1
6	299	14.766849339626	1
6	327	16.788902195025	1
6	330	16.888902195025	1
6	335	16.988902195025	1
6	340	17.088902195025	2
6	374	18.745598561612	1
6	378	18.845598561612	1
6	395	19.425999186667	1
6	415	21.132621625805	1
6	470	26.070133720731	1
6	486	26.536662648391	1
6	510	28.261690345905	1
6	515	28.361690345905	1
6	540	29.457559992154	1
6	543	29.557559992154	1
6	547	29.657559992154	1
6	551	29.757559992154	2
6	582	30.764786980147	1
6	588	30.864786980147	1
6	591	30.964786980147	1
6	600	31.094271352129	2
6	617	31.478495852939	1
6	658	37.030399494772	1
7	26	1.906078513779	1
7	53	3.333870692803	1
7	77	4.262082484723	1
7	83	4.462082484723	1
7	103	4.790980715754	1
7	108	4.990980715754	1
7	114	5.190980715754	1
7	136	6.242029032776	1
7	145	6.515845291345	1
7	167	8.73639798228	1
7	182	9.378167594149	1
7	200	9.710038300807	1
7	206	9.910038300807	1
7	225	11.178538981365	1
7	237	11.487163270937	1
7	259	12.568956754268	1
7	278	12.872311188515	1
7	301	14.866949339626	1
7	307	15.066949339626	1
7	336	16.989002195025	1
7	344	17.189002195025	1
7	350	17.389002195025	1
7	358	17.589002195025	1
7	380	18.945698561612	1
7	386	19.145698561612	1
7	398	19.626099186667	1
7	419	21.332721625805	1
7	473	26.270233720731	1
7	493	26.736762648391	1
7	518	28.461790345905	1
7	523	28.661790345905	1
7	548	29.657659992154	1
7	555	29.857659992154	1
7	561	30.057659992154	1
7	567	30.257659992154	1
7	592	30.964886980147	1
7	603	31.164886980147	1
7	608	31.364886980147	1
7	619	31.564886980147	1
7	625	31.764886980147	1
7	666	37.230499494772	1
8	37	2.006078513779	0.4002
8	59	3.433870692803	0.4002
8	79	4.362082484723	1.160872193959
8	92	4.562082484723	0.6002
8	105	4.890980715754	0.881586005503
8	111	5.090980715754	0.98158974625
8	120	5.290980715754	0.8002
8	141	6.342029032776	0.4002
8	147	6.615845291345	0.4002
8	169	8.83639798228	0.4002
8	191	9.478167594149	0.4002
8	203	9.810038300807	0.710591512581
8	212	10.010038300807	0.6002
8	230	11.278538981365	0.4002
8	239	11.587163270937	0.4002
8	268	12.668956754268	0.4002
8	284	12.972311188515	0.6028360395
8	304	14.966949339626	2.394838151111
8	313	15.166949339626	2.350422840124
8	341	17.089002195025	2.522252855399
8	346	17.289002195025	0.6002
8	352	17.489002195025	0.772120049441
8	365	17.689002195025	0.711404050003
8	382	19.045698561612	1.475489095273
8	388	19.245698561612	0.6002
8	401	19.726099186667	0.4002
8	421	21.432721625805	0.4002
8	480	26.370233720731	1.798855449475
8	499	26.836762648391	0.86672892766
8	520	28.561790345905	2.125227697514
8	530	28.761790345905	2.124271107845
8	552	29.757659992154	1.596069646249
8	558	29.957659992154	1.640508231433
8	563	30.157659992154	0.8002
8	573	30.357659992154	0.959542516008
8	597	31.064886980147	0.4002
8	605	31.264886980147	0.566012642886
8	614	31.464886980147	0.660632922196
8	621	31.664886980147	0.670715628018
8	627	31.864886980147	0.486491127208
8	668	37.330499494772	0.4002
9	37	2.006078513779	1
9	59	3.433870692803	1
9	79	4.362082484723	1
9	92	4.562082484723	1
9	105	4.890980715754	1
9	111	5.090980715754	1
9	120	5.290980715754	1
9	141	6.342029032776	1
9	147	6.615845291345	1
9	169	8.83639798228	1
9	191	9.478167594149	1
9	203	9.810038300807	1
9	212	10.010038300807	1
9	230	11.278538981365	1
9	239	11.587163270937	1
9	268	12.668956754268	1
9	284	12.972311188515	1
9	304	14.966949339626	1
9	313	15.166949339626	1
9	341	17.089002195025	1
9	346	17.289002195025	1
9	352	17.489002195025	1
9	365	17.689002195025	1
9	382	19.045698561612	1
9	388	19.245698561612	1
9	401	19.726099186667	1
9	421	21.432721625805	1
9	480	26.370233720731	1
9	499	26.836762648391	1
9	520	28.561790345905	1
9	530	28.761790345905	1
9	552	29.757659992154	1
9	558	29.957659992154	1
9	563	30.157659992154	1
9	573	30.357659992154	1
9	597	31.064886980147	1
9	605	31.264886980147	1
9	614	31.464886980147	1
9	621	31.664886980147	1
9	627	31.864886980147	1
9	668	37.330499494772	1

