version 3
run FeedbackVersion-0-20240511-20:48:08-11935
attr configname FeedbackVersion
attr datetime 20240511-20:48:08
attr datetimef 20240511-204808
attr experiment FeedbackVersion
attr inifile omnetpp.ini
attr iterationvars $genInterval=0.1
attr iterationvarsd genInterval=0.1
attr iterationvarsf genInterval=0.1-
attr measurement $genInterval=0.1
attr network NetworkFV
attr processid 11935
attr repetition 0
attr replication #0
attr resultdir results
attr runnumber 0
attr seedset 0
itervar genInterval 0.1
config network NetworkFV
config sim-time-limit 200s
config NetworkFV.nodeTx.gen.generationInterval exponential(0.1)
config NetworkFV.nodeTx.gen.packetByteSize 12500
config NetworkFV.queueOne.bufferSize 200
config NetworkFV.nodeRx.queue.bufferSize 200
config NetworkFV.nodeTx.queue.bufferSize 2000000
config NetworkFV.queueZero.bufferSize 200

vector 0 NetworkFV.nodeRx.queue PacketsLost ETV
vector 1 NetworkFV.nodeRx.queue PacketsAsked ETV
vector 2 NetworkFV.queueOne bufferSize ETV
vector 3 NetworkFV.nodeTx.gen packetGen ETV
vector 4 NetworkFV.nodeTx.queue BufferSize ETV
vector 5 NetworkFV.nodeTx.queue PacketsSent ETV
vector 6 NetworkFV.queueZero bufferSize ETV
vector 7 NetworkFV.nodeRx.queue BufferSize ETV
vector 8 NetworkFV.nodeRx.sink Delay ETV
vector 9 NetworkFV.nodeRx.sink packetUsed ETV
0	1	0	1
0	14	0.2	1
0	52	1.0004	1
0	148	2.5014	1
0	236	4.0024	1
0	6567	104.2692	1
0	11652	184.4226	1
1	1	0	2
1	33	0.579787450457	2
1	68	1.268673833052	4
1	129	2.191911773842	6
1	221	3.595004632088	10
1	353	5.981211061769	15
1	556	9.148329319415	22
1	854	13.729129293672	34
1	1300	20.677284052022	51
1	1939	31.042547248844	76
1	2906	46.420026044033	114
1	4391	69.383985582198	172
1	6550	103.923142860508	199
1	9080	143.992021214605	199
1	11640	183.99273593336	199
2	2	0	1
2	35	0.579787450457	1
2	70	1.268673833052	1
2	131	2.191911773842	1
2	223	3.595004632088	1
2	355	5.981211061769	1
2	558	9.148329319415	1
2	856	13.729129293672	1
2	1302	20.677284052022	1
2	1941	31.042547248844	1
2	2908	46.420026044033	1
2	4393	69.383985582198	1
2	6552	103.923142860508	1
2	9082	143.992021214605	1
2	11642	183.99273593336	1
3	6	0.079587450457	1
3	9	0.169443489305	1
3	17	0.29503656511	1
3	26	0.480996986317	1
3	29	0.573319299464	1
3	42	0.768473833052	1
3	45	0.84719394705	1
3	53	1.03509035247	1
3	59	1.090195201137	1
3	64	1.187895843776	1
3	74	1.291711773842	1
3	78	1.340224590214	1
3	85	1.397776509902	1
3	87	1.433092423816	1
3	97	1.65544486602	1
3	99	1.661283332929	1
3	114	1.992774560922	1
3	117	2.024610175006	1
3	120	2.072970385501	1
3	125	2.137915020326	1
3	138	2.294804632088	1
3	144	2.46202575212	1
3	149	2.537293163451	1
3	156	2.602681420173	1
3	158	2.686624705463	1
3	164	2.736511906365	1
3	179	2.99633731495	1
3	185	3.177174241377	1
3	188	3.184542776924	1
3	194	3.225700576548	1
3	197	3.23481667916	1
3	202	3.339277929991	1
3	205	3.341320488831	1
3	208	3.387245302557	1
3	217	3.565994068901	1
3	230	3.881011061769	1
3	237	4.031589487633	1
3	239	4.046712572999	1
3	248	4.250743998793	1
3	260	4.454833220384	1
3	281	4.839355407298	1
3	288	4.903526324566	1
3	294	5.064050280272	1
3	303	5.225450487761	1
3	308	5.287343433724	1
3	311	5.360839875843	1
3	320	5.512493473242	1
3	326	5.626087367413	1
3	329	5.638674808357	1
3	334	5.766197578579	1
3	341	5.868340766014	1
3	346	5.955572885518	1
3	349	5.971045853568	1
3	359	6.048129319415	1
3	370	6.337571367214	1
3	382	6.479707835223	1
3	389	6.553490564399	1
3	391	6.564685180462	1
3	393	6.618241752485	1
3	399	6.682411222688	1
3	402	6.713139257903	1
3	404	6.733759586106	1
3	415	6.882585068681	1
3	423	7.016114087143	1
3	429	7.077022329461	1
3	431	7.101427178535	1
3	438	7.185460649096	1
3	440	7.199988451825	1
3	442	7.201885308745	1
3	444	7.241062389813	1
3	451	7.33720048372	1
3	458	7.353414132665	1
3	460	7.448113800382	1
3	466	7.473257993589	1
3	473	7.569212791326	1
3	477	7.618068496257	1
3	488	7.905859998385	1
3	496	8.138751335806	1
3	505	8.253265231276	1
3	508	8.313039838958	1
3	514	8.357591688463	1
3	519	8.452541146813	1
3	523	8.509994387487	1
3	531	8.742629493656	1
3	540	8.862240273602	1
3	543	8.87269639618	1
3	546	8.878907925227	1
3	562	9.228929293672	1
3	570	9.338820540427	1
3	575	9.444703953576	1
3	582	9.555763698145	1
3	584	9.574506304747	1
3	586	9.598126975355	1
3	592	9.642467378217	1
3	594	9.65627024706	1
3	602	9.795174516039	1
3	608	9.833070712467	1
3	610	9.926676868444	1
3	617	9.971887074466	1
3	620	10.011198330196	1
3	626	10.095641109549	1
3	628	10.09955942519	1
3	635	10.157291856271	1
3	641	10.257878956788	1
3	663	10.703328641406	1
3	680	11.022623305611	1
3	686	11.033386816427	1
3	693	11.139169457762	1
3	695	11.16259960964	1
3	702	11.263401534182	1
3	704	11.280992888725	1
3	725	11.817002923749	1
3	730	11.922877195258	1
3	736	12.010068780621	1
3	741	12.039276833948	1
3	744	12.092783301656	1
3	751	12.155577459755	1
3	754	12.219955559915	1
3	759	12.247983260763	1
3	765	12.34566966817	1
3	768	12.362982413785	1
3	771	12.404232536777	1
3	775	12.415928077756	1
3	780	12.528244907909	1
3	788	12.635052127624	1
3	791	12.673207711961	1
3	794	12.688078938886	1
3	803	12.838742472213	1
3	806	12.860630531864	1
3	818	13.159349521049	1
3	821	13.205350916823	1
3	827	13.313977854911	1
3	835	13.486011020683	1
3	838	13.487377478526	1
3	841	13.497591966678	1
3	847	13.595102160094	1
3	860	13.777084052022	1
3	868	13.889065488597	1
3	870	13.899168966128	1
3	885	14.256527803362	1
3	906	14.63143094932	1
3	918	14.841963079399	1
3	925	14.905196739039	1
3	927	14.976455098372	1
3	948	15.352647826822	1
3	950	15.358380519464	1
3	957	15.451228369154	1
3	964	15.511223057818	1
3	970	15.645647585033	1
3	972	15.647666597848	1
3	974	15.651664227754	1
3	981	15.709952066641	1
3	984	15.743193090737	1
3	1005	16.132350103022	1
3	1007	16.145155779553	1
3	1013	16.189697725745	1
3	1015	16.224815334683	1
3	1022	16.290379963119	1
3	1024	16.303018826762	1
3	1031	16.419706179417	1
3	1033	16.457976274303	1
3	1045	16.670399994003	1
3	1052	16.723888431579	1
3	1064	16.974279609888	1
3	1070	16.980909350036	1
3	1072	17.005348894844	1
3	1079	17.123267847551	1
3	1085	17.206552199158	1
3	1092	17.290161952355	1
3	1100	17.490486004606	1
3	1104	17.521327488616	1
3	1109	17.592452282338	1
3	1112	17.666528177383	1
3	1124	17.915086413081	1
3	1127	17.924951443923	1
3	1138	18.178981894719	1
3	1141	18.264771458826	1
3	1144	18.27344850706	1
3	1156	18.538374099928	1
3	1159	18.570908141481	1
3	1164	18.609264162891	1
3	1167	18.610204237957	1
3	1174	18.720288828966	1
3	1182	18.905021594066	1
3	1185	18.919154665422	1
3	1191	19.02333273084	1
3	1197	19.149326111851	1
3	1206	19.333454359	1
3	1209	19.367619775703	1
3	1214	19.398371548079	1
3	1217	19.418606591936	1
3	1220	19.469326604262	1
3	1226	19.557639508458	1
3	1232	19.638119248438	1
3	1235	19.640150494318	1
3	1238	19.658175719516	1
3	1246	19.834749826757	1
3	1252	19.880922916361	1
3	1255	19.88139357041	1
3	1258	19.897227721033	1
3	1264	20.01049113523	1
3	1270	20.094799438445	1
3	1273	20.12627160453	1
3	1279	20.247922469874	1
3	1287	20.380798257249	1
3	1290	20.414832931073	1
3	1306	20.742347248844	1
3	1311	20.799137664192	1
3	1314	20.827739761443	1
3	1321	20.968842202372	1
3	1328	21.054681499155	1
3	1330	21.105115879814	1
3	1337	21.194774966893	1
3	1349	21.421148324479	1
3	1356	21.506070405635	1
3	1362	21.607936278637	1
3	1364	21.633178277926	1
3	1381	21.855328967773	1
3	1397	22.160557133461	1
3	1404	22.274517929814	1
3	1407	22.333780332559	1
3	1413	22.393418271992	1
3	1424	22.580764259978	1
3	1446	22.965064918302	1
3	1453	23.085288775027	1
3	1455	23.097641439763	1
3	1457	23.13294345309	1
3	1469	23.278625308946	1
3	1480	23.446717529401	1
3	1482	23.499789779063	1
3	1489	23.550291653838	1
3	1496	23.662819855522	1
3	1508	23.875769795129	1
3	1510	23.904510842736	1
3	1516	23.991564425369	1
3	1518	24.02913830961	1
3	1535	24.242621354608	1
3	1551	24.579058399913	1
3	1558	24.696996693277	1
3	1565	24.785782834321	1
3	1572	24.914973761201	1
3	1579	25.022757249615	1
3	1586	25.092337195705	1
3	1592	25.168523972835	1
3	1609	25.481070808601	1
3	1611	25.507276532769	1
3	1617	25.610556233834	1
3	1625	25.66078731366	1
3	1627	25.715926912673	1
3	1633	25.812372269222	1
3	1640	25.905612557263	1
3	1646	25.970023028095	1
3	1649	25.97196100623	1
3	1652	26.035473777793	1
3	1658	26.07136649938	1
3	1663	26.197270851106	1
3	1670	26.305202870972	1
3	1673	26.33916934423	1
3	1678	26.3734293067	1
3	1681	26.421792875359	1
3	1688	26.518030380936	1
3	1696	26.65632830159	1
3	1699	26.712324408597	1
3	1708	26.923069169092	1
3	1711	26.937626566937	1
3	1716	26.948481276786	1
3	1719	26.983903690011	1
3	1722	26.993595965469	1
3	1728	27.077984812728	1
3	1732	27.121687614105	1
3	1737	27.211060521936	1
3	1743	27.291315720512	1
3	1748	27.376723694076	1
3	1751	27.380144035912	1
3	1758	27.48604497445	1
3	1769	27.833298522378	1
3	1775	27.938883483244	1
3	1780	27.977596492459	1
3	1784	28.034057542571	1
3	1790	28.059065692069	1
3	1798	28.285929091338	1
3	1801	28.301158453863	1
3	1807	28.346975742259	1
3	1810	28.357207803744	1
3	1813	28.414453958887	1
3	1827	28.828234934938	1
3	1839	29.050726400661	1
3	1842	29.080882991983	1
3	1851	29.244972749776	1
3	1854	29.321980435731	1
3	1862	29.443682385265	1
3	1865	29.503089735097	1
3	1868	29.51365099946	1
3	1872	29.52413918302	1
3	1882	29.776067396028	1
3	1885	29.819501961622	1
3	1894	29.944762714113	1
3	1897	30.008108975885	1
3	1920	30.684648027879	1
3	1929	30.868621306387	1
3	1932	30.884808315058	1
3	1945	31.119826044033	1
3	1956	31.322416925743	1
3	1958	31.326245217031	1
3	1960	31.343977774546	1
3	1962	31.414969567268	1
3	1969	31.51056620966	1
3	1975	31.528820069848	1
3	1977	31.542038440809	1
3	1985	31.69302078637	1
3	1996	31.881413675029	1
3	2008	32.081612324582	1
3	2020	32.246284234715	1
3	2022	32.299284522529	1
3	2028	32.383472618702	1
3	2030	32.398551719721	1
3	2037	32.45083872273	1
3	2039	32.454217401285	1
3	2041	32.461384939716	1
3	2063	32.866369623596	1
3	2069	32.985913480224	1
3	2076	33.032640736865	1
3	2078	33.09307064405	1
3	2085	33.147556356864	1
3	2092	33.275589777245	1
3	2094	33.280781032463	1
3	2106	33.482058306084	1
3	2112	33.527549490563	1
3	2129	33.898545549753	1
3	2131	33.900222326352	1
3	2143	34.093880050101	1
3	2149	34.120112981018	1
3	2151	34.12129130421	1
3	2158	34.266070712409	1
3	2160	34.310695994461	1
3	2176	34.599157169671	1
3	2188	34.730087006073	1
3	2195	34.868716141275	1
3	2197	34.887545638797	1
3	2204	34.929006893063	1
3	2206	35.002620003062	1
3	2213	35.069866054745	1
3	2215	35.075453060034	1
3	2217	35.116850952301	1
3	2223	35.139164873111	1
3	2225	35.158947823857	1
3	2227	35.160817370899	1
3	2229	35.179569266019	1
3	2241	35.33741053823	1
3	2243	35.399670272628	1
3	2250	35.425020843142	1
3	2262	35.632623949186	1
3	2264	35.674989659322	1
3	2280	35.963444088163	1
3	2297	36.226665974418	1
3	2303	36.32037984619	1
3	2311	36.442259526524	1
3	2317	36.533055929256	1
3	2319	36.536291609721	1
3	2326	36.689374732348	1
3	2328	36.707370466503	1
3	2335	36.776690443457	1
3	2342	36.873838659266	1
3	2344	36.879006949846	1
3	2350	36.965099313514	1
3	2358	37.085196404168	1
3	2360	37.112363211202	1
3	2385	37.600276500001	1
3	2402	37.872411325592	1
3	2404	37.903508106089	1
3	2411	37.998691076843	1
3	2418	38.112350726369	1
3	2424	38.189058691826	1
3	2436	38.388775888575	1
3	2443	38.477913746266	1
3	2450	38.616881452644	1
3	2461	38.74785998978	1
3	2473	39.081653423165	1
3	2476	39.119042072755	1
3	2482	39.199840078095	1
3	2488	39.250626590364	1
3	2491	39.274501877649	1
3	2494	39.298054334991	1
3	2499	39.323214196302	1
3	2502	39.34381740115	1
3	2505	39.36850332803	1
3	2517	39.65741088722	1
3	2523	39.741708764761	1
3	2529	39.876243508084	1
3	2534	39.936411406736	1
3	2537	40.0038358637	1
3	2552	40.355283731754	1
3	2555	40.381085008148	1
3	2561	40.495198798434	1
3	2566	40.524549563626	1
3	2569	40.533464992626	1
3	2572	40.539443088918	1
3	2575	40.54525032513	1
3	2578	40.602240081661	1
3	2585	40.66915145403	1
3	2588	40.706518433469	1
3	2596	40.919385442922	1
3	2605	41.038571253287	1
3	2616	41.41324071467	1
3	2622	41.460682343703	1
3	2628	41.55682630086	1
3	2631	41.576623074393	1
3	2637	41.654820646481	1
3	2640	41.657319481812	1
3	2649	41.8501554955	1
3	2652	41.857117262607	1
3	2657	41.993310435038	1
3	2663	42.107064285592	1
3	2669	42.172187358784	1
3	2675	42.232645480618	1
3	2680	42.345681035209	1
3	2686	42.422593015319	1
3	2690	42.51599904858	1
3	2701	42.742983050158	1
3	2707	42.868403377167	1
3	2724	43.332368629804	1
3	2727	43.395761631743	1
3	2733	43.420210733947	1
3	2736	43.481094025321	1
3	2741	43.589884468682	1
3	2753	43.826776285766	1
3	2756	43.857336775947	1
3	2759	43.872096379236	1
3	2762	43.874183101097	1
3	2765	43.900218242252	1
3	2774	44.042256587811	1
3	2783	44.255612916558	1
3	2786	44.294181685963	1
3	2796	44.528966062106	1
3	2800	44.577329900855	1
3	2806	44.681114908404	1
3	2811	44.769865101252	1
3	2814	44.809122404071	1
3	2823	44.986936737754	1
3	2829	45.060273505071	1
3	2835	45.159423934361	1
3	2838	45.159429469551	1
3	2846	45.365511593639	1
3	2849	45.402887923021	1
3	2856	45.434845388508	1
3	2859	45.490262471413	1
3	2867	45.650234415597	1
3	2876	45.866810783684	1
3	2879	45.887345560558	1
3	2884	46.001251325625	1
3	2896	46.306569792584	1
3	2902	46.367474253855	1
3	2912	46.483785582198	1
3	2917	46.549835890173	1
3	2919	46.57410773954	1
3	2927	46.729574033321	1
3	2944	47.024022061063	1
3	2946	47.050086074001	1
3	2952	47.181336873298	1
3	2969	47.393611538692	1
3	2971	47.422906684541	1
3	2973	47.460549619693	1
3	2979	47.484541971637	1
3	2996	47.800251525779	1
3	2999	47.873274292303	1
3	3005	47.937093152862	1
3	3007	47.939692927381	1
3	3014	48.064028005176	1
3	3020	48.087280507014	1
3	3022	48.103967971137	1
3	3025	48.159251808202	1
3	3036	48.290349045018	1
3	3038	48.337216692616	1
3	3046	48.441137256274	1
3	3052	48.50342018725	1
3	3054	48.527612151727	1
3	3056	48.560133753525	1
3	3058	48.580769552885	1
3	3065	48.669148118488	1
3	3077	48.833955735804	1
3	3089	49.033359655932	1
3	3095	49.170827651312	1
3	3097	49.183330910304	1
3	3108	49.295676960259	1
3	3111	49.368529344532	1
3	3118	49.400949255881	1
3	3120	49.415113459361	1
3	3122	49.434339603445	1
3	3128	49.560520870794	1
3	3136	49.682420805312	1
3	3142	49.732848798637	1
3	3149	49.795052490545	1
3	3151	49.87839031461	1
3	3163	50.061916654904	1
3	3165	50.082162531274	1
3	3171	50.105086963795	1
3	3173	50.120734540833	1
3	3175	50.138761970791	1
3	3182	50.205716029877	1
3	3184	50.219050092204	1
3	3187	50.262995631253	1
3	3198	50.391038066651	1
3	3210	50.673101661493	1
3	3212	50.676194290649	1
3	3223	50.821149768292	1
3	3230	50.958584069734	1
3	3241	51.096680379301	1
3	3243	51.106397147138	1
3	3255	51.340446343204	1
3	3257	51.364966152468	1
3	3259	51.373677010794	1
3	3271	51.512008657409	1
3	3278	51.592347833676	1
3	3284	51.723910459506	1
3	3292	51.811731967378	1
3	3294	51.816400741742	1
3	3310	52.143250381824	1
3	3312	52.16671596675	1
3	3319	52.201267925121	1
3	3321	52.235083396605	1
3	3323	52.262636190309	1
3	3330	52.375728038228	1
3	3337	52.386296755638	1
3	3339	52.392808042117	1
3	3341	52.394464651559	1
3	3343	52.475578753782	1
3	3359	52.740834605334	1
3	3361	52.741762907772	1
3	3368	52.852603883193	1
3	3380	53.031602843641	1
3	3391	53.185385715089	1
3	3413	53.600982824645	1
3	3415	53.634073812763	1
3	3421	53.755642860099	1
3	3429	53.843930914595	1
3	3431	53.863975134104	1
3	3433	53.870584335173	1
3	3439	53.942408983184	1
3	3446	54.008889758139	1
3	3452	54.095746331286	1
3	3470	54.475148709595	1
3	3481	54.630049877511	1
3	3493	54.839205534773	1
3	3499	54.9324667203	1
3	3501	54.973739706973	1
3	3508	54.998381289194	1
3	3524	55.324273386912	1
3	3532	55.385001315774	1
3	3534	55.411359027058	1
3	3545	55.622447904496	1
3	3561	55.920667972043	1
3	3569	55.988448172249	1
3	3581	56.272112191587	1
3	3592	56.397835891144	1
3	3599	56.558381767451	1
3	3606	56.624966016115	1
3	3612	56.724512380452	1
3	3620	56.847800426755	1
3	3631	57.055176573065	1
3	3637	57.12412002685	1
3	3640	57.158795357229	1
3	3651	57.344938521527	1
3	3663	57.533948691337	1
3	3665	57.555558312996	1
3	3672	57.651759505655	1
3	3684	57.80018375392	1
3	3686	57.801516278403	1
3	3698	58.167482011479	1
3	3704	58.210135592683	1
3	3713	58.408410483143	1
3	3716	58.424443892592	1
3	3721	58.576050785575	1
3	3736	58.976845751062	1
3	3753	59.397031693687	1
3	3756	59.462111427923	1
3	3765	59.602178997619	1
3	3768	59.670973345465	1
3	3771	59.671378977597	1
3	3776	59.773397686392	1
3	3782	59.804797476198	1
3	3786	59.850776607976	1
3	3791	59.903623330806	1
3	3794	59.918345834537	1
3	3797	59.974246601536	1
3	3806	60.14690993951	1
3	3809	60.182269597036	1
3	3815	60.203322925856	1
3	3818	60.254594390119	1
3	3823	60.326198921918	1
3	3826	60.339056945646	1
3	3829	60.364458083481	1
3	3844	60.759221410237	1
3	3847	60.769518246609	1
3	3853	60.821626128717	1
3	3861	61.019815162828	1
3	3867	61.104028793112	1
3	3879	61.46492289361	1
3	3884	61.507022223415	1
3	3896	61.831018520105	1
3	3905	61.98654795614	1
3	3913	62.223586714201	1
3	3917	62.276582872128	1
3	3925	62.425325847562	1
3	3928	62.469840781503	1
3	3933	62.510359069737	1
3	3937	62.561358153122	1
3	3940	62.569816102298	1
3	3946	62.605745492811	1
3	3949	62.658042258177	1
3	3957	62.807305474596	1
3	3960	62.83373252101	1
3	3971	63.094389701242	1
3	3974	63.108602252381	1
3	3978	63.147952493493	1
3	3981	63.153443230748	1
3	3993	63.458929208649	1
3	4001	63.588243994529	1
3	4004	63.589648653653	1
3	4007	63.590797978674	1
3	4010	63.667040347095	1
3	4019	63.814260762894	1
3	4022	63.850584984784	1
3	4025	63.86647830275	1
3	4034	64.080916849201	1
3	4039	64.089203076493	1
3	4042	64.118054347528	1
3	4045	64.127441802256	1
3	4051	64.240579679016	1
3	4057	64.352068421207	1
3	4065	64.518364999274	1
3	4068	64.546517401521	1
3	4074	64.603106855684	1
3	4078	64.657672627161	1
3	4086	64.797159536287	1
3	4089	64.878661369377	1
3	4098	65.055623351698	1
3	4107	65.252629108257	1
3	4112	65.300276966517	1
3	4118	65.430121530077	1
3	4121	65.440274938471	1
3	4124	65.471790941343	1
3	4129	65.501381128668	1
3	4132	65.51547791711	1
3	4139	65.605110837612	1
3	4142	65.610807490859	1
3	4145	65.675524961263	1
3	4150	65.711421093101	1
3	4153	65.7783513803	1
3	4159	65.808748536223	1
3	4163	65.870092445182	1
3	4168	65.930998890714	1
3	4174	66.005357209892	1
3	4179	66.120331348667	1
3	4183	66.178673725771	1
3	4191	66.297623350904	1
3	4200	66.489107576668	1
3	4203	66.522447910506	1
3	4206	66.57926495888	1
3	4212	66.627056757631	1
3	4221	66.802428222133	1
3	4224	66.822413775925	1
3	4229	66.893614582487	1
3	4236	67.04898913269	1
3	4239	67.058022857098	1
3	4242	67.063875646993	1
3	4247	67.171768337843	1
3	4255	67.291169674903	1
3	4258	67.314311772099	1
3	4265	67.465133295262	1
3	4274	67.653045138683	1
3	4282	67.803286418054	1
3	4287	67.917655480113	1
3	4291	67.947687988142	1
3	4294	67.967334176732	1
3	4300	68.014144822055	1
3	4303	68.021386733066	1
3	4308	68.109962797669	1
3	4311	68.110936338603	1
3	4314	68.142794723391	1
3	4323	68.365403122335	1
3	4329	68.411742125089	1
3	4332	68.426067427227	1
3	4335	68.448014243316	1
3	4344	68.599060403438	1
3	4347	68.660652331816	1
3	4358	68.919897192694	1
3	4361	68.924460997644	1
3	4367	69.050050346078	1
3	4376	69.210892130987	1
3	4379	69.278387228352	1
3	4384	69.286395113946	1
3	4387	69.349788326595	1
3	4397	69.422942860508	1
3	4408	69.637252830551	1
3	4410	69.673897959734	1
3	4417	69.740921147392	1
3	4424	69.827087896572	1
3	4426	69.880628331681	1
3	4443	70.201109214642	1
3	4445	70.220238819232	1
3	4456	70.323963328642	1
3	4459	70.388454177759	1
3	4461	70.392054460734	1
3	4472	70.545139302628	1
3	4474	70.60142182281	1
3	4481	70.682711658929	1
3	4488	70.754050087209	1
3	4490	70.771469603246	1
3	4496	70.848294937433	1
3	4498	70.863823495983	1
3	4506	70.978203033895	1
3	4512	71.083031944391	1
3	4514	71.11554903144	1
3	4521	71.19303326939	1
3	4523	71.206828592583	1
3	4529	71.246234349778	1
3	4532	71.296103583065	1
3	4534	71.312004784745	1
3	4555	71.6252877337	1
3	4557	71.642707605358	1
3	4559	71.663426123583	1
3	4561	71.677284805725	1
3	4573	71.911608798734	1
3	4580	71.998102609677	1
3	4586	72.076586311636	1
3	4588	72.086266058867	1
3	4595	72.147314343367	1
3	4607	72.388715986418	1
3	4619	72.60245815546	1
3	4621	72.611119854905	1
3	4627	72.672480275879	1
3	4639	72.833613475791	1
3	4646	72.962409673299	1
3	4658	73.172073300651	1
3	4661	73.222993549338	1
3	4666	73.232805501601	1
3	4678	73.467192465681	1
3	4680	73.522758356997	1
3	4691	73.639884726492	1
3	4694	73.703982081018	1
3	4705	73.824253459401	1
3	4707	73.911050457603	1
3	4715	73.950758552605	1
3	4721	74.076722669667	1
3	4728	74.218101002621	1
3	4730	74.220845212664	1
3	4737	74.321922128974	1
3	4748	74.453374338782	1
3	4750	74.480820690982	1
3	4762	74.62647671214	1
3	4764	74.643976216962	1
3	4766	74.644957660602	1
3	4773	74.804113272881	1
3	4779	74.840971566842	1
3	4797	75.160797064519	1
3	4799	75.18730637466	1
3	4805	75.248580919146	1
3	4807	75.318583482758	1
3	4814	75.407983623026	1
3	4830	75.715291145305	1
3	4842	75.91028883649	1
3	4849	75.991890692886	1
3	4856	76.052996449015	1
3	4858	76.063251638315	1
3	4875	76.366645895555	1
3	4881	76.463846984661	1
3	4888	76.549590494922	1
3	4900	76.748384440406	1
3	4906	76.920291371585	1
3	4913	76.937445234322	1
3	4925	77.176963213261	1
3	4951	77.665313112296	1
3	4962	77.834336607772	1
3	4964	77.843219846037	1
3	4967	77.860585502358	1
3	4969	77.870507655006	1
3	4976	77.969635605582	1
3	4982	78.07004072297	1
3	4984	78.120862668375	1
3	5001	78.419040634108	1
3	5007	78.425517203387	1
3	5019	78.701577648955	1
3	5027	78.756748010214	1
3	5029	78.816056169947	1
3	5035	78.845989008189	1
3	5042	78.976072750935	1
3	5054	79.165145666378	1
3	5060	79.300717517763	1
3	5062	79.304104703287	1
3	5069	79.340775218666	1
3	5086	79.660151405934	1
3	5088	79.672908763314	1
3	5090	79.716816461873	1
3	5097	79.775493342541	1
3	5099	79.819608823614	1
3	5105	79.869329752248	1
3	5107	79.870976080646	1
3	5114	79.946872558071	1
3	5117	79.967357784786	1
3	5128	80.154021831804	1
3	5130	80.205314530987	1
3	5137	80.282160788726	1
3	5153	80.547079614949	1
3	5160	80.661107502641	1
3	5162	80.671600777374	1
3	5169	80.76555097596	1
3	5185	81.056142936326	1
3	5187	81.06651001999	1
3	5199	81.270139438717	1
3	5201	81.27979356662	1
3	5208	81.340336944784	1
3	5210	81.346096236466	1
3	5212	81.385652796506	1
3	5214	81.394703543521	1
3	5216	81.421197037285	1
3	5222	81.448269476359	1
3	5230	81.543581730186	1
3	5241	81.726535945772	1
3	5243	81.729899337864	1
3	5246	81.803791339858	1
3	5248	81.805364252235	1
3	5254	81.877328742004	1
3	5261	81.933329579337	1
3	5267	82.03826379593	1
3	5269	82.045313990766	1
3	5277	82.123969899955	1
3	5279	82.152997241467	1
3	5281	82.156297639973	1
3	5283	82.181292721638	1
3	5289	82.268078908627	1
3	5291	82.2972735158	1
3	5303	82.444715738278	1
3	5305	82.458763309974	1
3	5307	82.505960118751	1
3	5309	82.507171043257	1
3	5316	82.574706630274	1
3	5318	82.586978131006	1
3	5340	82.986734478678	1
3	5346	83.083093748307	1
3	5348	83.111151340925	1
3	5369	83.477107552771	1
3	5376	83.523999685498	1
3	5398	83.988027685093	1
3	5400	83.992701175267	1
3	5406	84.045304254843	1
3	5408	84.082420426923	1
3	5410	84.100208102709	1
3	5422	84.278301570198	1
3	5429	84.380123328079	1
3	5441	84.544641670786	1
3	5443	84.612036015208	1
3	5449	84.714207849949	1
3	5476	85.168990235135	1
3	5478	85.214893027884	1
3	5480	85.221646443572	1
3	5486	85.259152637884	1
3	5494	85.412046524955	1
3	5505	85.573912631597	1
3	5507	85.607936353558	1
3	5509	85.615241519273	1
3	5515	85.642872038566	1
3	5523	85.757938297859	1
3	5529	85.866558628975	1
3	5531	85.914479898423	1
3	5538	85.942724569619	1
3	5545	86.043217900525	1
3	5552	86.152837156626	1
3	5564	86.414401249868	1
3	5570	86.487239007171	1
3	5582	86.679612864238	1
3	5588	86.734793076402	1
3	5591	86.803644465206	1
3	5597	86.884542434719	1
3	5603	86.940375113645	1
3	5606	86.974209725515	1
3	5614	87.147121689283	1
3	5620	87.269734910506	1
3	5626	87.403762506704	1
3	5631	87.457352386238	1
3	5635	87.516618128032	1
3	5641	87.561332118292	1
3	5652	87.908396626346	1
3	5661	88.084805365565	1
3	5667	88.129929245414	1
3	5676	88.388911859964	1
3	5681	88.439584181354	1
3	5684	88.44429410846	1
3	5690	88.578496082578	1
3	5693	88.604974309912	1
3	5699	88.664591499052	1
3	5702	88.70744225947	1
3	5714	88.984356707754	1
3	5722	89.15307853663	1
3	5725	89.182815889421	1
3	5740	89.606117469054	1
3	5745	89.654205291484	1
3	5757	90.001490862074	1
3	5762	90.120939856425	1
3	5774	90.356273333232	1
3	5783	90.583644049901	1
3	5786	90.618820788444	1
3	5791	90.631724638762	1
3	5806	91.114696663559	1
3	5812	91.142343935213	1
3	5815	91.171034844751	1
3	5818	91.196946070339	1
3	5821	91.208140524453	1
3	5826	91.275378814657	1
3	5838	91.576875641876	1
3	5847	91.798997060196	1
3	5852	91.825578715098	1
3	5855	91.869912154698	1
3	5862	91.986955727699	1
3	5867	92.035607641675	1
3	5870	92.041620478588	1
3	5879	92.290183587023	1
3	5885	92.421379895131	1
3	5890	92.433463034757	1
3	5899	92.646933274211	1
3	5905	92.746663166628	1
3	5908	92.778468621147	1
3	5911	92.792718915712	1
3	5916	92.840370497809	1
3	5920	92.887250066973	1
3	5926	92.934137882536	1
3	5929	92.973354011498	1
3	5934	93.111499919483	1
3	5943	93.225479460149	1
3	5946	93.252635039317	1
3	5952	93.411370762286	1
3	5957	93.430227234711	1
3	5961	93.500331785644	1
3	5967	93.559986777332	1
3	5970	93.595118905486	1
3	5975	93.631426789504	1
3	5984	93.848549377639	1
3	5992	94.031302004421	1
3	5996	94.074668489958	1
3	5999	94.101815486601	1
3	6007	94.23590565906	1
3	6010	94.305699413943	1
3	6017	94.386748728661	1
3	6028	94.672491263443	1
3	6031	94.694995512829	1
3	6037	94.795507077686	1
3	6042	94.875029297817	1
3	6051	95.076987748139	1
3	6057	95.150310282007	1
3	6068	95.432001455003	1
3	6071	95.47489263858	1
3	6078	95.613828489275	1
3	6081	95.616321298848	1
3	6089	95.736577033319	1
3	6092	95.752691291202	1
3	6103	96.096785695961	1
3	6106	96.110925007234	1
3	6126	96.629437949537	1
3	6132	96.75250983464	1
3	6136	96.812625299278	1
3	6144	96.936093286883	1
3	6147	96.943443924625	1
3	6152	97.03805409875	1
3	6156	97.072697431499	1
3	6162	97.184143254671	1
3	6165	97.200672555903	1
3	6170	97.260005612729	1
3	6173	97.314045882489	1
3	6182	97.433144027829	1
3	6185	97.447218543372	1
3	6188	97.494752510336	1
3	6194	97.587416370366	1
3	6197	97.597955983357	1
3	6202	97.646213504873	1
3	6215	97.968745113245	1
3	6223	98.194492792321	1
3	6226	98.202011973237	1
3	6240	98.545574312485	1
3	6243	98.54752324178	1
3	6249	98.62668415124	1
3	6261	99.015775160281	1
3	6266	99.047909190568	1
3	6269	99.063982194625	1
3	6275	99.153687496036	1
3	6279	99.18362279633	1
3	6287	99.41069380707	1
3	6292	99.434968350806	1
3	6296	99.487179481247	1
3	6302	99.57390868313	1
3	6307	99.654222360322	1
3	6321	100.026163191412	1
3	6324	100.057860929401	1
3	6328	100.089745034242	1
3	6334	100.150523510654	1
3	6345	100.501429865754	1
3	6351	100.55279842708	1
3	6354	100.555381231523	1
3	6357	100.583938123573	1
3	6366	100.802902795029	1
3	6371	100.873397727167	1
3	6378	100.996706599889	1
3	6383	101.033868175372	1
3	6386	101.066409847088	1
3	6389	101.113096281444	1
3	6401	101.338345568451	1
3	6404	101.412783394591	1
3	6407	101.415471456542	1
3	6415	101.554339183929	1
3	6421	101.652592018201	1
3	6424	101.693164652588	1
3	6430	101.733144179836	1
3	6439	101.991055492915	1
3	6453	102.332547983158	1
3	6462	102.530829241185	1
3	6465	102.549290828476	1
3	6468	102.554282388719	1
3	6477	102.786034994976	1
3	6480	102.815290055095	1
3	6485	102.855328208241	1
3	6488	102.914411730281	1
3	6500	103.134444662325	1
3	6503	103.145496249985	1
3	6506	103.217332833506	1
3	6511	103.260176936385	1
3	6517	103.331640355123	1
3	6523	103.466385237492	1
3	6526	103.515296078554	1
3	6534	103.629400411979	1
3	6538	103.704921593755	1
3	6544	103.802309452903	1
3	6559	104.091821214605	1
3	6565	104.215791022667	1
3	6575	104.439155007777	1
3	6577	104.462086724941	1
3	6584	104.575132444772	1
3	6591	104.616941610666	1
3	6597	104.718836928774	1
3	6604	104.831612972131	1
3	6611	104.911100255738	1
3	6622	105.122490937203	1
3	6624	105.154330238809	1
3	6632	105.232785908501	1
3	6634	105.248834319237	1
3	6636	105.282060381595	1
3	6648	105.476065202583	1
3	6650	105.479135379884	1
3	6656	105.579936733932	1
3	6667	105.70384038467	1
3	6669	105.739456962826	1
3	6671	105.740248497477	1
3	6679	105.801907806329	1
3	6681	105.848537508973	1
3	6683	105.851020829748	1
3	6689	105.926637454527	1
3	6696	106.008296723412	1
3	6708	106.263544372767	1
3	6714	106.308353169605	1
3	6716	106.317728708366	1
3	6719	106.387586808974	1
3	6726	106.439664695461	1
3	6728	106.456344271273	1
3	6730	106.45880563568	1
3	6736	106.514232483021	1
3	6738	106.556180415368	1
3	6755	106.792809441753	1
3	6757	106.890156696118	1
3	6759	106.891011497983	1
3	6765	106.923732536116	1
3	6782	107.270671919994	1
3	6789	107.294212506644	1
3	6796	107.411619520323	1
3	6798	107.423915777012	1
3	6800	107.434387004355	1
3	6806	107.520458475106	1
3	6808	107.554675944268	1
3	6816	107.673508860297	1
3	6822	107.75096053909	1
3	6829	107.86242163939	1
3	6836	107.991210663301	1
3	6853	108.288531497249	1
3	6859	108.337775634887	1
3	6861	108.338046322345	1
3	6863	108.363804808979	1
3	6870	108.467989255461	1
3	6877	108.528660496385	1
3	6884	108.620387676076	1
3	6900	108.97823784866	1
3	6907	109.067090719893	1
3	6919	109.246558031293	1
3	6935	109.575622914319	1
3	6952	109.82188734126	1
3	6954	109.823588903633	1
3	6960	109.933635756681	1
3	6968	110.052867334103	1
3	6974	110.110968199649	1
3	6982	110.278996439657	1
3	6993	110.394543912532	1
3	6995	110.465839560445	1
3	7001	110.570422089724	1
3	7009	110.611063376399	1
3	7011	110.614016557515	1
3	7017	110.770482212585	1
3	7034	111.02247108197	1
3	7036	111.032701260071	1
3	7042	111.110889702381	1
3	7044	111.169235719612	1
3	7071	111.641875239298	1
3	7077	111.715262236	1
3	7079	111.763567538426	1
3	7087	111.881970312061	1
3	7098	112.046305635582	1
3	7100	112.055834083869	1
3	7107	112.117639321583	1
3	7109	112.143485246455	1
3	7120	112.318830058283	1
3	7122	112.371644457355	1
3	7130	112.449105830991	1
3	7136	112.546735033288	1
3	7148	112.765006422217	1
3	7160	112.983008466933	1
3	7176	113.195123912618	1
3	7179	113.291573888794	1
3	7185	113.331368728259	1
3	7187	113.345693598638	1
3	7194	113.397516383448	1
3	7210	113.791662251911	1