version 3
run FeedbackVersion-11-20240511-20:48:08-11935
attr configname FeedbackVersion
attr datetime 20240511-20:48:08
attr datetimef 20240511-204808
attr experiment FeedbackVersion
attr inifile omnetpp.ini
attr iterationvars $genInterval=0.65
attr iterationvarsd genInterval=0.65
attr iterationvarsf genInterval=0.65-
attr measurement $genInterval=0.65
attr network NetworkFV
attr processid 11935
attr repetition 0
attr replication #0
attr resultdir results
attr runnumber 11
attr seedset 11
itervar genInterval 0.65
config network NetworkFV
config sim-time-limit 200s
config NetworkFV.nodeTx.gen.generationInterval exponential(0.65)
config NetworkFV.nodeTx.gen.packetByteSize 12500
config NetworkFV.queueOne.bufferSize 200
config NetworkFV.nodeRx.queue.bufferSize 200
config NetworkFV.nodeTx.queue.bufferSize 2000000
config NetworkFV.queueZero.bufferSize 200

vector 0 NetworkFV.nodeRx.queue PacketsLost ETV
vector 1 NetworkFV.nodeRx.queue PacketsAsked ETV
vector 2 NetworkFV.queueOne bufferSize ETV
vector 3 NetworkFV.nodeTx.gen packetGen ETV
vector 4 NetworkFV.nodeTx.queue BufferSize ETV
vector 5 NetworkFV.nodeTx.queue PacketsSent ETV
vector 6 NetworkFV.queueZero bufferSize ETV
vector 7 NetworkFV.nodeRx.queue BufferSize ETV
vector 8 NetworkFV.nodeRx.sink Delay ETV
vector 9 NetworkFV.nodeRx.sink packetUsed ETV
0	1	0	1
0	13	0.2	1
0	19	0.4	1
0	89	2.4012	1
0	96	3.0016	1
0	97	3.3018	1
0	98	3.602	1
0	99	3.9022	1
0	106	4.2024	1
0	171	5.7034	1
0	172	6.0036	1
0	173	6.3038	1
0	180	6.604	1
0	211	7.8048	1
0	215	8.105	1
0	225	8.7054	1
0	226	9.0056	1
0	227	9.3058	1
0	228	9.606	1
0	236	9.9062	1
0	260	10.8068	1
0	261	11.107	1
0	268	11.4072	1
0	275	12.0076	1
0	276	12.3078	1
0	277	12.608	1
0	288	12.9082	1
0	298	13.2084	1
0	302	13.5086	1
0	313	13.8088	1
0	316	14.109	1
0	325	14.4092	1
0	342	15.0096	1
0	361	15.9102	1
0	362	16.2104	1
0	369	16.5106	1
0	376	17.111	1
0	383	17.4112	1
0	390	18.0116	1
0	395	18.3118	1
0	399	18.612	1
0	412	19.2124	1
0	429	19.8128	1
0	430	20.113	1
0	439	20.4132	1
0	461	21.0136	1
0	476	21.614	1
0	495	22.5146	1
0	496	22.8148	1
0	497	23.115	1
0	498	23.4152	1
0	499	23.7154	1
0	510	24.0156	1
0	527	24.3158	1
0	530	24.616	1
0	531	24.9162	1
0	532	25.2164	1
0	533	25.5166	1
0	534	25.8168	1
0	539	26.117	1
0	540	26.4172	1
0	541	26.7174	1
0	548	27.0176	1
0	561	27.3178	1
0	562	27.618	1
0	563	27.9182	1
0	576	28.2184	1
0	586	28.5186	1
0	587	28.8188	1
0	591	29.119	1
0	605	29.7194	1
0	606	30.0196	1
0	607	30.3198	1
0	608	30.62	1
0	615	30.9202	1
0	634	31.8208	1
0	643	32.121	1
0	739	34.5226	1
0	753	35.123	1
0	757	35.4232	1
0	798	36.9242	1
0	816	37.5246	1
0	834	38.4252	1
0	852	39.0256	1
0	899	40.5266	1
0	900	40.8268	1
0	907	41.127	1
0	926	42.0276	1
0	933	42.3278	1
0	940	42.9282	1
0	945	43.2284	1
0	946	43.5286	1
0	953	43.8288	1
0	968	44.4292	1
0	985	45.0296	1
0	1007	45.9302	1
0	1008	46.2304	1
0	1009	46.5306	1
0	1010	46.8308	1
0	1011	47.131	1
0	1018	47.4312	1
0	1037	47.7314	1
0	1051	47.956964193094	1
0	1053	48.0316	1
0	1056	48.3318	1
0	1057	48.632	1
0	1058	48.9322	1
0	1059	49.2324	1
0	1064	49.5326	1
0	1065	49.8328	1
0	1066	50.133	1
0	1067	50.4332	1
0	1074	50.7334	1
0	1084	51.0336	1
0	1091	51.3338	1
0	1104	51.634	1
0	1108	51.9342	1
0	1128	52.5346	1
0	1150	53.4352	1
0	1159	53.7354	1
0	1213	54.9362	1
0	1272	56.4372	1
0	1273	56.7374	1
0	1277	57.0376	1
0	1333	58.8388	1
0	1343	59.4392	1
0	1344	59.7394	1
0	1349	60.0396	1
0	1353	60.3398	1
0	1363	60.9402	1
0	1364	61.2404	1
0	1365	61.5406	1
0	1366	61.8408	1
0	1371	62.141	1
0	1372	62.4412	1
0	1373	62.7414	1
0	1374	63.0416	1
0	1381	63.3418	1
0	1391	63.642	1
0	1392	63.9422	1
0	1396	64.2424	1
0	1416	64.8428	1
0	1429	65.4432	1
0	1440	66.0436	1
0	1444	66.3438	1
0	1459	66.9442	1
0	1484	67.8448	1
0	1488	68.145	1
0	1541	69.646	1
0	1542	69.9462	1
0	1543	70.2464	1
0	1544	70.5466	1
0	1545	70.8468	1
0	1546	71.147	1
0	1557	71.4472	1
0	1564	72.0476	1
0	1571	72.3478	1
0	1586	72.9482	1
0	1605	73.8488	1
0	1606	74.149	1
0	1607	74.4492	1
0	1608	74.7494	1
0	1609	75.0496	1
0	1610	75.3498	1
0	1615	75.65	1
0	1616	75.9502	1
0	1622	76.2504	1
0	1647	77.151	1
0	1651	77.4512	1
0	1673	78.3518	1
0	1683	78.652	1
0	1713	79.5526	1
0	1720	79.8528	1
0	1727	80.4532	1
0	1728	80.7534	1
0	1729	81.0536	1
0	1730	81.3538	1
0	1741	81.654	1
0	1748	82.2544	1
0	1755	82.5546	1
0	1769	83.155	1
0	1770	83.4552	1
0	1771	83.7554	1
0	1772	84.0556	1
0	1773	84.3558	1
0	1782	84.656	1
0	1806	84.9562	1
0	1834	85.8568	1
0	1841	86.157	1
0	1861	86.7574	1
0	1876	87.658	1
0	1886	87.9582	1
0	1897	88.5586	1
0	1903	88.8588	1
0	1947	90.3598	1
0	1958	90.9602	1
0	1962	91.2604	1
0	1991	92.161	1
0	2005	92.7614	1
0	2006	93.0616	1
0	2007	93.3618	1
0	2012	93.662	1
0	2013	93.9622	1
0	2017	94.2624	1
0	2067	95.7634	1
0	2074	96.0636	1
0	2081	96.664	1
0	2088	96.9642	1
0	2095	97.5646	1
0	2096	97.8648	1
0	2101	98.165	1
0	2102	98.4652	1
0	2106	98.7654	1
0	2171	100.5666	1
0	2172	100.8668	1
0	2173	101.167	1
0	2174	101.4672	1
0	2175	101.7674	1
0	2176	102.0676	1
0	2187	102.3678	1
0	2203	102.668	1
0	2231	103.2684	1
0	2256	103.8688	1
0	2257	104.169	1
0	2261	104.4692	1
0	2302	105.67	1
0	2352	106.8708	1
0	2380	107.7714	1
0	2393	108.3718	1
0	2463	110.4732	1
0	2464	110.7734	1
0	2465	111.0736	1
0	2472	111.3738	1
0	2479	111.9742	1
0	2483	112.2744	1
0	2497	112.8748	1
0	2501	113.175	1
0	2511	113.7754	1
0	2512	114.0756	1
0	2516	114.3758	1
0	2538	115.2764	1
0	2551	115.5766	1
0	2570	116.4772	1
0	2574	116.7774	1
0	2584	117.3778	1
0	2585	117.678	1
0	2586	117.9782	1
0	2593	118.2784	1
0	2607	118.5786	1
0	2614	118.8788	1
0	2627	119.179	1
0	2628	119.4792	1
0	2632	119.7794	1
0	2656	120.3798	1
0	2675	120.9802	1
0	2676	121.2804	1
0	2683	121.5806	1
0	2761	123.3818	1
0	2817	124.8828	1
0	2827	125.4832	1
0	2828	125.7834	1
0	2829	126.0836	1
0	2836	126.3838	1
0	2859	127.2844	1
0	2866	127.5846	1
0	2906	128.7854	1
0	2913	129.0856	1
0	2920	129.686	1
0	2921	129.9862	1
0	2932	130.2864	1
0	2939	130.8868	1
0	2940	131.187	1
0	2941	131.4872	1
0	2945	131.7874	1
0	2967	132.688	1
0	2972	132.9882	1
0	2973	133.2884	1
0	2980	133.5886	1
0	2996	133.8888	1
0	3007	134.4892	1
0	3011	134.7894	1
0	3052	135.69	1
0	3095	136.8908	1
0	3136	138.3918	1
0	3137	138.692	1
0	3138	138.9922	1
0	3142	139.2924	1
0	3168	140.193	1
0	3175	140.4932	1
0	3224	141.9942	1
0	3231	142.5946	1
0	3232	142.8948	1
0	3233	143.195	1
0	3238	143.4952	1
0	3245	143.7954	1
0	3258	144.3958	1
0	3265	144.9962	1
0	3272	145.2964	1
0	3279	145.8968	1
0	3284	146.197	1
0	3294	146.4972	1
0	3304	146.7974	1
0	3311	147.0976	1
0	3322	147.698	1
0	3331	147.9982	1
0	3347	148.5986	1
0	3348	148.8988	1
0	3349	149.199	1
0	3356	149.4992	1
0	3363	150.0996	1
0	3370	150.3998	1
0	3387	150.7	1
0	3410	151.3004	1
0	3429	151.9008	1
0	3436	152.201	1
0	3455	153.1016	1
0	3456	153.4018	1
0	3457	153.702	1
0	3464	154.0022	1
0	3475	154.6026	1
0	3476	154.9028	1
0	3477	155.203	1
0	3481	155.5032	1
0	3506	156.4038	1
0	3513	156.704	1
0	3524	157.3044	1
0	3525	157.6046	1
0	3526	157.9048	1
0	3527	158.205	1
0	3534	158.5052	1
0	3553	159.4058	1
0	3558	159.706	1
0	3562	160.0062	1
0	3573	160.3064	1
0	3585	160.6066	1
0	3599	161.207	1
0	3645	162.708	1
0	3646	163.0082	1
0	3653	163.3084	1
0	3670	163.9088	1
0	3677	164.5092	1
0	3684	164.8094	1
0	3691	165.4098	1
0	3692	165.71	1
0	3693	166.0102	1
0	3698	166.3104	1
0	3699	166.6106	1
0	3703	166.9108	1
0	3729	167.8114	1
0	3730	168.1116	1
0	3731	168.4118	1
0	3732	168.712	1
0	3739	169.0122	1
0	3746	169.6126	1
0	3751	169.9128	1
0	3752	170.213	1
0	3756	170.5132	1
0	3767	170.8134	1
0	3770	171.1136	1
0	3771	171.4138	1
0	3775	171.714	1
0	3789	172.0142	1
0	3807	172.6146	1
0	3808	172.9148	1
0	3809	173.215	1
0	3810	173.5152	1
0	3811	173.8154	1
0	3815	174.1156	1
0	3832	174.4158	1
0	3876	175.6166	1
0	3877	175.9168	1
0	3881	176.217	1
0	3899	177.1176	1
0	3900	177.4178	1
0	3901	177.718	1
0	3915	178.0182	1
0	3931	178.3184	1
0	3945	178.9188	1
0	3946	179.219	1
0	3947	179.5192	1
0	3948	179.8194	1
0	3952	180.1196	1
0	4017	181.9208	1
0	4043	183.1216	1
0	4044	183.4218	1
0	4045	183.722	1
0	4049	184.0222	1
0	4065	184.6226	1
0	4082	185.223	1
0	4099	185.8234	1
0	4106	186.4238	1
0	4107	186.724	1
0	4108	187.0242	1
0	4109	187.3244	1
0	4119	187.6246	1
0	4133	187.9248	1
0	4140	188.225	1
0	4151	188.8254	1
0	4152	189.1256	1
0	4153	189.4258	1
0	4160	189.726	1
0	4187	190.6266	1
0	4306	193.6286	1
0	4307	193.9288	1
0	4314	194.229	1
0	4321	194.8294	1
0	4322	195.1296	1
0	4323	195.4298	1
0	4328	195.73	1
0	4335	196.0302	1
0	4354	196.9308	1
0	4355	197.231	1
0	4356	197.5312	1
0	4357	197.8314	1
0	4367	198.1316	1
0	4378	198.4318	1
0	4381	198.732	1
0	4382	199.0322	1
0	4383	199.3324	1
0	4384	199.6326	1
0	4385	199.9328	1
1	1	0	2
1	27	0.629406927313	2
1	54	1.398493011456	4
1	106	4.2024	2
1	128	4.631352782965	2
1	157	5.13545724539	3
1	193	6.983416348047	5
1	228	9.606	2
1	251	10.403671540669	2
1	277	12.608	1
1	290	12.936574685952	1
1	307	13.787555804356	1
1	327	14.600661223757	2
1	352	15.349726199282	4
1	390	18.0116	2
1	420	19.448989010188	2
1	446	20.634002891845	3
1	486	22.009974177271	4
1	510	24.0156	2
1	521	24.304229392566	2
1	534	25.8168	1
1	553	27.091917847991	1
1	578	28.317738140537	1
1	596	29.370878343142	2
1	625	31.223075602872	4
1	675	32.73149634229	6
1	744	34.658488520297	9
1	852	39.0256	4
1	890	40.079620099115	4
1	940	42.9282	2
1	970	44.586877726958	2
1	998	45.355897380708	3
1	1018	47.4312	1
1	1026	47.550510833399	1
1	1039	47.750510833399	2
1	1059	49.2324	1
1	1076	50.763656247209	1
1	1096	51.502072333823	1
1	1116	52.201776651554	2
1	1141	52.942191298824	4
1	1198	54.376844141508	6
1	1263	56.082874597323	9
1	1344	59.7394	4
1	1366	61.8408	1
1	1383	63.477458094523	1
1	1401	64.500044003627	2
1	1431	65.448604143465	3
1	1475	67.398273988879	5
1	1532	69.209112050035	8
1	1546	71.147	4
1	1596	73.325952068203	4
1	1610	75.3498	2
1	1638	76.683016857096	2
1	1664	77.904253952478	3
1	1704	79.147433531623	4
1	1730	81.3538	2
1	1760	82.713920557711	2
1	1782	84.656	1
1	1788	84.734912298544	1
1	1800	84.934912298544	1
1	1813	85.187766447917	2
1	1846	86.348900862434	3
1	1888	88.007541114601	5
1	1949	90.467140669384	8
1	2007	93.3618	4
1	2058	95.34402288814	4
1	2096	97.8648	2
1	2126	99.217315808322	2
1	2150	99.74759328977	3
1	2176	102.0676	1
1	2192	102.530908946224	1
1	2208	102.887785402459	2
1	2247	103.490163101511	3
1	2285	105.077079130453	5
1	2337	106.483095289952	8
1	2431	109.371770877569	12
1	2483	112.2744	6
1	2538	115.2764	2
1	2561	115.887565210057	2
1	2593	118.2784	1
1	2599	118.341612726098	1
1	2619	119.020397628507	1
1	2637	119.988263612362	2
1	2666	120.659101873904	3
1	2703	122.089176597355	5
1	2763	123.406857046335	7
1	2850	126.964068682571	11
1	2921	129.9862	5
1	2967	132.688	1
1	2982	133.607513189783	1
1	2998	133.982333192368	2
1	3031	135.254301234494	4
1	3081	136.346575182366	6
1	3147	139.520210898849	9
1	3233	143.195	5
1	3279	145.8968	1
1	3296	146.506165176537	1
1	3313	147.237821316704	2
1	3338	148.214798217017	3
1	3370	150.3998	1
1	3376	150.575648336545	1
1	3392	150.924701441306	2
1	3420	151.543053454521	4
1	3464	154.0022	2
1	3491	155.79256086311	2
1	3515	156.753209426464	3
1	3553	159.4058	1
1	3567	160.249855202322	1
1	3587	160.697154251108	2
1	3612	161.685994911943	3
1	3655	163.474468155396	5
1	3693	166.0102	2
1	3720	167.423057784048	2
1	3746	169.6126	1
1	3761	170.753969130898	1
1	3780	171.947937637417	1
1	3798	172.312706351295	2
1	3815	174.1156	1
1	3826	174.3846474242	1
1	3836	174.5846474242	2
1	3867	175.260718469624	3
1	3901	177.718	1
1	3917	178.019692986191	1
1	3936	178.496366303505	2
1	3968	180.619460361614	3
1	4005	181.341939551376	5
1	4065	184.6226	2
1	4084	185.27354194301	2
1	4119	187.6246	1
1	4125	187.701357453018	1
1	4142	188.316860701401	2
1	4175	190.074498147846	3
1	4210	191.308810696202	4
1	4260	192.221651896284	7
1	4323	195.4298	3
1	4357	197.8314	1
1	4372	198.392467846925	1
1	4385	199.9328	0
2	2	0	1
2	29	0.629406927313	1
2	56	1.398493011456	1
2	107	4.2024	1
2	130	4.631352782965	1
2	159	5.13545724539	1
2	195	6.983416348047	1
2	229	9.606	1
2	253	10.403671540669	1
2	278	12.608	1
2	292	12.936574685952	1
2	309	13.787555804356	1
2	329	14.600661223757	1
2	354	15.349726199282	1
2	391	18.0116	1
2	422	19.448989010188	1
2	448	20.634002891845	1
2	488	22.009974177271	1
2	511	24.0156	1
2	523	24.304229392566	1
2	535	25.8168	1
2	555	27.091917847991	1
2	580	28.317738140537	1
2	598	29.370878343142	1
2	627	31.223075602872	1
2	677	32.73149634229	1
2	746	34.658488520297	1
2	853	39.0256	1
2	892	40.079620099115	1
2	941	42.9282	1
2	972	44.586877726958	1
2	1000	45.355897380708	1
2	1019	47.4312	1
2	1028	47.550510833399	1
2	1041	47.750510833399	1
2	1060	49.2324	1
2	1078	50.763656247209	1
2	1098	51.502072333823	1
2	1118	52.201776651554	1
2	1143	52.942191298824	1
2	1200	54.376844141508	1
2	1265	56.082874597323	1
2	1345	59.7394	1
2	1367	61.8408	1
2	1385	63.477458094523	1
2	1403	64.500044003627	1
2	1433	65.448604143465	1
2	1477	67.398273988879	1
2	1534	69.209112050035	1
2	1547	71.147	1
2	1598	73.325952068203	1
2	1611	75.3498	1
2	1640	76.683016857096	1
2	1666	77.904253952478	1
2	1706	79.147433531623	1
2	1731	81.3538	1
2	1762	82.713920557711	1
2	1783	84.656	1
2	1790	84.734912298544	1
2	1802	84.934912298544	1
2	1815	85.187766447917	1
2	1848	86.348900862434	1
2	1890	88.007541114601	1
2	1951	90.467140669384	1
2	2008	93.3618	1
2	2060	95.34402288814	1
2	2097	97.8648	1
2	2128	99.217315808322	1
2	2152	99.74759328977	1
2	2177	102.0676	1
2	2194	102.530908946224	1
2	2210	102.887785402459	1
2	2249	103.490163101511	1
2	2287	105.077079130453	1
2	2339	106.483095289952	1
2	2433	109.371770877569	1
2	2484	112.2744	1
2	2539	115.2764	1
2	2563	115.887565210057	1
2	2594	118.2784	1
2	2601	118.341612726098	1
2	2621	119.020397628507	1
2	2639	119.988263612362	1
2	2668	120.659101873904	1
2	2705	122.089176597355	1
2	2765	123.406857046335	1
2	2852	126.964068682571	1
2	2922	129.9862	1
2	2968	132.688	1
2	2984	133.607513189783	1
2	3000	133.982333192368	1
2	3033	135.254301234494	1
2	3083	136.346575182366	1
2	3149	139.520210898849	1
2	3234	143.195	1
2	3280	145.8968	1
2	3298	146.506165176537	1
2	3315	147.237821316704	1
2	3340	148.214798217017	1
2	3371	150.3998	1
2	3378	150.575648336545	1
2	3394	150.924701441306	1
2	3422	151.543053454521	1
2	3465	154.0022	1
2	3493	155.79256086311	1
2	3517	156.753209426464	1
2	3554	159.4058	1
2	3569	160.249855202322	1
2	3589	160.697154251108	1
2	3614	161.685994911943	1
2	3657	163.474468155396	1
2	3694	166.0102	1
2	3722	167.423057784048	1
2	3747	169.6126	1
2	3763	170.753969130898	1
2	3782	171.947937637417	1
2	3800	172.312706351295	1
2	3816	174.1156	1
2	3828	174.3846474242	1
2	3838	174.5846474242	1
2	3869	175.260718469624	1
2	3902	177.718	1
2	3919	178.019692986191	1
2	3938	178.496366303505	1
2	3970	180.619460361614	1
2	4007	181.341939551376	1
2	4066	184.6226	1
2	4086	185.27354194301	1
2	4120	187.6246	1
2	4127	187.701357453018	1
2	4144	188.316860701401	1
2	4177	190.074498147846	1
2	4212	191.308810696202	1
2	4262	192.221651896284	1
2	4324	195.4298	1
2	4358	197.8314	1
2	4374	198.392467846925	1
2	4386	199.9328	1
3	6	0.129206927313	1
3	9	0.175195567897	1
3	11	0.187979365877	1
3	35	0.898293011456	1
3	50	1.302699748899	1
3	60	1.442979497632	1
3	83	2.281963057724	1
3	100	3.976851901931	1
3	114	4.331152782965	1
3	119	4.403385516726	1
3	140	4.83525724539	1
3	148	5.001535249662	1
3	151	5.009896321962	1
3	174	6.483216348047	1
3	189	6.917548995043	1
3	212	8.054881797456	1
3	233	9.903471540669	1
3	237	9.966785513898	1
3	262	11.203368038366	1
3	282	12.636374685952	1
3	299	13.487355804356	1
3	317	14.300461223757	1
3	320	14.375285764811	1
3	336	14.849526199282	1
3	363	16.307744328285	1
3	377	17.308046795098	1
3	396	18.572940220557	1
3	409	19.148789010188	1
3	416	19.266066750093	1
3	431	20.133802891845	1
3	455	20.784180153602	1
3	468	21.509774177271	1
3	471	21.523226778697	1
3	500	23.804029392566	1
3	503	23.88471556387	1
3	542	26.791717847991	1
3	549	27.038935276986	1
3	564	28.017538140537	1
3	570	28.129254372486	1
3	573	28.145810469222	1
3	588	29.070678343142	1
3	609	30.722875602872	1
3	635	31.83129634229	1
3	649	32.175263457448	1
3	662	32.449918954673	1
3	668	32.586649099496	1
3	683	32.836182520195	1
3	689	32.984491639533	1
3	694	33.061453010132	1
3	731	34.358288520297	1
3	734	34.415285569262	1
3	740	34.524869148932	1
3	754	35.335626231059	1
3	782	36.304712744325	1
3	795	36.899560158932	1
3	808	37.328506804323	1
3	811	37.365741073916	1
3	831	38.35977558014	1
3	844	38.784574437318	1
3	847	38.814438221331	1
3	860	39.148293608002	1
3	882	39.779420099115	1
3	901	41.003848901752	1
3	911	41.383607130937	1
3	927	42.206060918678	1
3	947	43.687725978321	1
3	960	44.286677726958	1
3	963	44.333214924219	1
3	979	44.855697380708	1
3	993	45.314650178758	1
3	1012	47.250310833399	1
3	1034	47.656764193094	1
3	1068	50.463456247209	1
3	1085	51.201872333823	1
3	1092	51.470043726204	1
3	1105	51.901576651554	1
3	1112	52.079853426578	1
3	1125	52.441991298824	1
3	1151	53.476644141508	1
3	1163	53.806765126759	1
3	1166	53.849538281296	1
3	1170	53.878109409276	1
3	1182	54.17290077756	1
3	1190	54.314853994088	1
3	1194	54.362040880439	1
3	1207	54.782674597323	1
3	1216	55.032751096519	1
3	1218	55.057218655862	1
3	1225	55.104657069305	1
3	1227	55.108568609438	1
3	1239	55.331428737599	1
3	1274	57.005210114496	1
3	1312	58.019944222541	1
3	1330	58.755580177961	1
3	1350	60.288345903502	1
3	1375	63.177258094523	1
3	1393	64.199844003627	1
3	1410	64.612074493385	1
3	1423	65.148404143465	1
3	1441	66.275919595657	1
3	1454	66.898073988879	1
3	1457	66.931880327878	1
3	1468	67.223475412649	1
3	1485	68.108912050035	1
3	1492	68.22910072365	1
3	1501	68.427668667179	1
3	1515	68.8002020599	1
3	1551	71.256044160248	1
3	1565	72.113948379446	1
3	1578	72.825752068203	1
3	1581	72.867970912832	1
3	1617	76.182816857096	1
3	1620	76.196434960803	1
3	1628	76.447213851618	1
3	1648	77.404053952478	1
3	1674	78.41543937918	1
3	1680	78.647233531623	1
3	1690	78.804417429613	1
3	1714	79.589527252281	1
3	1735	81.551318515342	1
3	1749	82.413720557711	1
3	1756	82.678646157117	1
3	1774	84.434712298544	1
3	1796	84.887566447917	1
3	1819	85.219958998304	1
3	1835	86.048700862434	1
3	1842	86.337202933325	1
3	1855	86.639506168535	1
3	1877	87.707341114601	1
3	1883	87.819565018047	1
3	1898	88.759469297398	1
3	1901	88.795846440214	1
3	1926	89.483104996676	1
3	1941	90.166940669384	1
3	1959	91.249731100777	1
3	1963	91.276396165088	1
3	1982	91.944480882287	1
3	1988	92.112736890007	1
3	2014	94.164745126668	1
3	2024	94.562157986999	1
3	2033	94.826238082596	1
3	2045	95.04382288814	1
3	2068	95.915066921019	1
3	2082	96.763226607833	1
3	2103	98.708289201351	1
3	2110	98.917115808322	1
3	2122	99.181673956704	1
3	2132	99.24739328977	1
3	2158	99.862164532411	1
3	2181	102.230708946224	1
3	2188	102.526579990064	1
3	2198	102.587585402459	1
3	2217	102.989963101511	1
3	2225	103.213004381203	1
3	2228	103.263680784289	1
3	2235	103.339810198266	1
3	2238	103.352506579406	1
3	2243	103.450202174548	1
3	2258	104.376879130453	1
3	2280	104.99103219742	1
3	2294	105.382895289952	1
3	2308	105.703436258488	1
3	2331	106.337231688993	1
3	2346	106.700694748858	1
3	2374	107.576171424336	1
3	2387	108.09373695868	1
3	2397	108.446313468673	1
3	2409	108.773701201999	1
3	2418	109.071570877569	1
3	2437	109.413800862355	1
3	2445	109.534154960317	1
3	2466	111.209502653301	1
3	2480	112.236021598624	1
3	2498	113.112660154353	1
3	2513	114.276150727824	1
3	2520	114.526076198885	1
3	2543	115.387365210057	1
3	2546	115.40330021792	1
3	2571	116.756470812917	1
3	2587	118.041412726098	1
3	2608	118.720197628507	1
3	2615	118.913949173697	1
3	2629	119.688063612362	1
3	2646	120.158901873904	1
3	2652	120.298296985832	1
3	2657	120.440344515053	1
3	2677	121.388976597355	1
3	2693	121.856800907985	1
3	2709	122.121084461314	1
3	2712	122.145539450412	1
3	2728	122.520056995118	1
3	2750	123.106657046335	1
3	2758	123.35625864299	1
3	2769	123.429972056867	1
3	2788	123.975972350799	1
3	2797	124.128607856571	1
3	2814	124.827339010939	1
3	2830	126.106830909157	1
3	2842	126.663868682571	1
3	2860	127.471696307182	1
3	2867	127.720646400946	1
3	2879	127.912543432224	1
3	2887	128.072381586932	1
3	2907	128.911853658128	1
3	2926	130.123410512282	1
3	2942	131.713016067576	1
3	2949	131.946867959069	1
3	2974	133.307313189783	1
3	2988	133.682133192368	1
3	3008	134.754101234494	1
3	3012	134.816414382171	1
3	3017	134.932239975028	1
3	3027	135.164988554621	1
3	3040	135.446375182366	1
3	3043	135.504609237927	1
3	3048	135.621444074611	1
3	3062	135.895196489972	1
3	3069	135.995941800742	1
3	3090	136.798995341035	1
3	3093	136.848525762591	1
3	3139	139.220010898849	1
3	3153	139.588744913958	1
3	3169	140.226673765359	1
3	3181	140.708559754769	1
3	3188	140.912501902661	1
3	3200	141.149113261935	1
3	3218	141.844077812343	1
3	3239	143.521151519512	1
3	3252	144.162162672851	1
3	3266	145.070608036298	1
3	3285	146.205965176537	1
3	3291	146.441727760414	1
3	3305	146.937621316704	1
3	3323	147.714598217017	1
3	3350	149.287914665461	1
3	3364	150.275448336545	1
3	3382	150.624501441306	1
3	3399	151.02384578122	1
3	3407	151.242853454521	1
3	3430	151.918136567642	1
3	3442	152.393874234947	1
3	3458	153.830417780829	1
3	3478	155.49236086311	1
3	3485	155.616438007301	1
3	3507	156.453009426464	1
3	3528	158.308440498786	1
3	3540	158.751120848172	1
3	3559	159.949655202322	1
3	3576	160.396954251108	1
3	3582	160.505779269927	1
3	3596	161.185794911943	1
3	3618	161.714924533279	1
3	3630	162.10088982044	1
3	3647	163.174268155396	1
3	3664	163.694222495583	1
3	3678	164.565705798924	1
3	3700	166.870943416909	1
3	3707	167.122857784048	1
3	3733	168.8741854321	1
3	3753	170.453769130898	1
3	3772	171.647737637417	1
3	3786	172.012506351295	1
3	3792	172.100825101157	1
3	3812	174.0844474242	1
3	3842	174.612965714026	1
3	3854	174.960518469624	1
3	3863	175.257165717789	1
3	3878	176.141229839554	1
3	3906	177.719492986191	1
3	3912	177.951499765042	1
3	3925	178.196166303505	1
3	3932	178.383589987635	1
3	3949	180.119260361614	1
3	3962	180.464768584633	1
3	3974	180.641739551376	1
3	3983	180.775575683786	1
3	3995	181.130086427393	1
3	4014	181.854555384121	1
3	4046	183.946217973896	1
3	4059	184.385046029956	1
3	4076	184.97334194301	1
3	4093	185.652374333848	1
3	4110	187.401157453018	1
3	4116	187.513539550279	1
3	4134	188.016660701401	1
3	4154	189.574298147846	1
3	4161	189.742530167581	1
3	4165	189.797317171744	1
3	4184	190.608610696202	1
3	4193	190.842237662472	1
3	4216	191.321451896284	1
3	4219	191.321563870075	1
3	4236	191.779263885971	1
3	4247	191.972422142767	1
3	4253	192.067805384379	1
3	4266	192.278041707959	1
3	4274	192.379805454371	1
3	4308	194.019954339392	1
3	4329	195.744816894894	1
3	4339	196.06108880969	1
3	4362	198.092267846925	1
3	4365	198.116224312097	1
4	7	0.129206927313	1
4	10	0.175195567897	1
4	12	0.187979365877	2
4	36	0.898293011456	2
4	51	1.302699748899	1
4	61	1.442979497632	2
4	84	2.281963057724	1
4	101	3.976851901931	1
4	115	4.331152782965	1
4	120	4.403385516726	1
4	141	4.83525724539	1
4	149	5.001535249662	1
4	152	5.009896321962	1
4	175	6.483216348047	2
4	190	6.917548995043	1
4	213	8.054881797456	1
4	234	9.903471540669	1
4	238	9.966785513898	1
4	263	11.203368038366	1
4	283	12.636374685952	1
4	300	13.487355804356	1
4	318	14.300461223757	1
4	321	14.375285764811	1
4	337	14.849526199282	2
4	364	16.307744328285	1
4	378	17.308046795098	1
4	397	18.572940220557	1
4	410	19.148789010188	1
4	417	19.266066750093	1
4	432	20.133802891845	2
4	456	20.784180153602	1
4	469	21.509774177271	1
4	472	21.523226778697	1
4	501	23.804029392566	1
4	504	23.88471556387	1
4	543	26.791717847991	1
4	550	27.038935276986	1
4	565	28.017538140537	2
4	571	28.129254372486	2
4	574	28.145810469222	3
4	589	29.070678343142	4
4	610	30.722875602872	4
4	636	31.83129634229	3
4	650	32.175263457448	1
4	663	32.449918954673	1
4	669	32.586649099496	2
4	684	32.836182520195	3
4	690	32.984491639533	2
4	695	33.061453010132	2
4	732	34.358288520297	1
4	735	34.415285569262	1
4	741	34.524869148932	2
4	755	35.335626231059	3
4	783	36.304712744325	1
4	796	36.899560158932	1
4	809	37.328506804323	1
4	812	37.365741073916	1
4	832	38.35977558014	1
4	845	38.784574437318	1
4	848	38.814438221331	1
4	861	39.148293608002	2
4	883	39.779420099115	1
4	902	41.003848901752	1
4	912	41.383607130937	1
4	928	42.206060918678	1
4	948	43.687725978321	1
4	961	44.286677726958	1
4	964	44.333214924219	1
4	980	44.855697380708	2
4	994	45.314650178758	1
4	1013	47.250310833399	2
4	1035	47.656764193094	1
4	1069	50.463456247209	1
4	1086	51.201872333823	1
4	1093	51.470043726204	1
4	1106	51.901576651554	2
4	1113	52.079853426578	2
4	1126	52.441991298824	3
4	1152	53.476644141508	2
4	1164	53.806765126759	1
4	1167	53.849538281296	1
4	1171	53.878109409276	2
4	1183	54.17290077756	2
4	1191	54.314853994088	3
4	1195	54.362040880439	4
4	1208	54.782674597323	5
4	1217	55.032751096519	3
4	1219	55.057218655862	4
4	1226	55.104657069305	4
4	1228	55.108568609438	5
4	1240	55.331428737599	4
4	1275	57.005210114496	5
4	1313	58.019944222541	1
4	1331	58.755580177961	1
4	1351	60.288345903502	1
4	1376	63.177258094523	1
4	1394	64.199844003627	1
4	1411	64.612074493385	1
4	1424	65.148404143465	1
4	1442	66.275919595657	1
4	1455	66.898073988879	1
4	1458	66.931880327878	1
4	1469	67.223475412649	1
4	1486	68.108912050035	2
4	1493	68.22910072365	1
4	1502	68.427668667179	1
4	1516	68.8002020599	1
4	1552	71.256044160248	1
4	1566	72.113948379446	1
4	1579	72.825752068203	1
4	1582	72.867970912832	1
4	1618	76.182816857096	1
4	1621	76.196434960803	1
4	1629	76.447213851618	1
4	1649	77.404053952478	2
4	1675	78.41543937918	1
4	1681	78.647233531623	1
4	1691	78.804417429613	1
4	1715	79.589527252281	1
4	1736	81.551318515342	1
4	1750	82.413720557711	1
4	1757	82.678646157117	1
4	1775	84.434712298544	2
4	1797	84.887566447917	1
4	1820	85.219958998304	1
4	1836	86.048700862434	1
4	1843	86.337202933325	1
4	1856	86.639506168535	2
4	1878	87.707341114601	1
4	1884	87.819565018047	1
4	1899	88.759469297398	2
4	1902	88.795846440214	2
4	1927	89.483104996676	1
4	1942	90.166940669384	1
4	1960	91.249731100777	1
4	1964	91.276396165088	1
4	1983	91.944480882287	1
4	1989	92.112736890007	1
4	2015	94.164745126668	1
4	2025	94.562157986999	1
4	2034	94.826238082596	1
4	2046	95.04382288814	1
4	2069	95.915066921019	1
4	2083	96.763226607833	1
4	2104	98.708289201351	1
4	2111	98.917115808322	1
4	2123	99.181673956704	1
4	2133	99.24739328977	2
4	2159	99.862164532411	1
4	2182	102.230708946224	1
4	2189	102.526579990064	1
4	2199	102.587585402459	2
4	2218	102.989963101511	2
4	2226	103.213004381203	1
4	2229	103.263680784289	2
4	2236	103.339810198266	3
4	2239	103.352506579406	4
4	2244	103.450202174548	5
4	2259	104.376879130453	6
4	2281	104.99103219742	4
4	2295	105.382895289952	5
4	2309	105.703436258488	2
4	2332	106.337231688993	2
4	2347	106.700694748858	3
4	2375	107.576171424336	1
4	2388	108.09373695868	1
4	2398	108.446313468673	1
4	2410	108.773701201999	1
4	2419	109.071570877569	1
4	2438	109.413800862355	1
4	2446	109.534154960317	1
4	2467	111.209502653301	1
4	2481	112.236021598624	1
4	2499	113.112660154353	1
4	2514	114.276150727824	1
4	2521	114.526076198885	1
4	2544	115.387365210057	1
4	2547	115.40330021792	1
4	2572	116.756470812917	1
4	2588	118.041412726098	1
4	2609	118.720197628507	1
4	2616	118.913949173697	1
4	2630	119.688063612362	2
4	2647	120.158901873904	2
4	2653	120.298296985832	1
4	2658	120.440344515053	2
4	2678	121.388976597355	3
4	2694	121.856800907985	1
4	2710	122.121084461314	2
4	2713	122.145539450412	2
4	2729	122.520056995118	1
4	2751	123.106657046335	1
4	2759	123.35625864299	1
4	2770	123.429972056867	2
4	2789	123.975972350799	1
4	2798	124.128607856571	1
4	2815	124.827339010939	1
4	2831	126.106830909157	1
4	2843	126.663868682571	1
4	2861	127.471696307182	1
4	2868	127.720646400946	1
4	2880	127.912543432224	1
4	2888	128.072381586932	1
4	2908	128.911853658128	1
4	2927	130.123410512282	1
4	2943	131.713016067576	1
4	2950	131.946867959069	1
4	2975	133.307313189783	1
4	2989	133.682133192368	1
4	3009	134.754101234494	1
4	3013	134.816414382171	1
4	3018	134.932239975028	1
4	3028	135.164988554621	2
4	3041	135.446375182366	3
4	3044	135.504609237927	3
4	3049	135.621444074611	3
4	3063	135.895196489972	2
4	3070	135.995941800742	3
4	3091	136.798995341035	4
4	3094	136.848525762591	4
4	3140	139.220010898849	1
4	3154	139.588744913958	1
4	3170	140.226673765359	1
4	3182	140.708559754769	1
4	3189	140.912501902661	1
4	3201	141.149113261935	1
4	3219	141.844077812343	1
4	3240	143.521151519512	1
4	3253	144.162162672851	1
4	3267	145.070608036298	1
4	3286	146.205965176537	1
4	3292	146.441727760414	1
4	3306	146.937621316704	2
4	3324	147.714598217017	2
4	3351	149.287914665461	1
4	3365	150.275448336545	1
4	3383	150.624501441306	1
4	3400	151.02384578122	1
4	3408	151.242853454521	1
4	3431	151.918136567642	1
4	3443	152.393874234947	1
4	3459	153.830417780829	1
4	3479	155.49236086311	1
4	3486	155.616438007301	1
4	3508	156.453009426464	1
4	3529	158.308440498786	1
4	3541	158.751120848172	1
4	3560	159.949655202322	1
4	3577	160.396954251108	1
4	3583	160.505779269927	1
4	3597	161.185794911943	2
4	3619	161.714924533279	1
4	3631	162.10088982044	1
4	3648	163.174268155396	1
4	3665	163.694222495583	1
4	3679	164.565705798924	1
4	3701	166.870943416909	1
4	3708	167.122857784048	1
4	3734	168.8741854321	1
4	3754	170.453769130898	1
4	3773	171.647737637417	1
4	3787	172.012506351295	1
4	3793	172.100825101157	1
4	3813	174.0844474242	2
4	3843	174.612965714026	1
4	3855	174.960518469624	1
4	3864	175.257165717789	1
4	3879	176.141229839554	2
4	3907	177.719492986191	1
4	3913	177.951499765042	1
4	3926	178.196166303505	2
4	3933	178.383589987635	2
4	3950	180.119260361614	3
4	3963	180.464768584633	2
4	3975	180.641739551376	3
4	3984	180.775575683786	2
4	3996	181.130086427393	2
4	4015	181.854555384121	3
4	4047	183.946217973896	1
4	4060	184.385046029956	1
4	4077	184.97334194301	1
4	4094	185.652374333848	1
4	4111	187.401157453018	1
4	4117	187.513539550279	1
4	4135	188.016660701401	2
4	4155	189.574298147846	2
4	4162	189.742530167581	1
4	4166	189.797317171744	2
4	4185	190.608610696202	3
4	4194	190.842237662472	1
4	4217	191.321451896284	2
4	4220	191.321563870075	2
4	4237	191.779263885971	1
4	4248	191.972422142767	1
4	4254	192.067805384379	2
4	4267	192.278041707959	3
4	4275	192.379805454371	2
4	4309	194.019954339392	1
4	4330	195.744816894894	1
4	4340	196.06108880969	1
4	4363	198.092267846925	1
4	4366	198.116224312097	1
5	8	0.129206927313	1
5	14	0.229206927313	2
5	37	0.898293011456	3